# OOMMF OVF 2.0
# Segment count: 1
# Begin: Segment
# Begin: Header
# Title: B_ext
# meshtype: rectangular
# meshunit: m
# xmin: 0
# ymin: 0
# zmin: 0
# xmax: 1.024e-06
# ymax: 1.024e-06
# zmax: 5e-09
# valuedim: 3
# valuelabels: B_ext_x B_ext_y B_ext_z
# valueunits: T T T
# Desc: Total simulation time:  0  s
# xbase: 1e-09
# ybase: 1e-09
# zbase: 2.5e-09
# xnodes: 512
# ynodes: 512
# znodes: 1
# xstepsize: 2e-09
# ystepsize: 2e-09
# zstepsize: 5e-09
# End: Header
# Begin: Data Text
0	0	18879000000
0	0	18865000000
0	0	18852000000
0	0	18838000000
0	0	18824000000
0	0	18811000000
0	0	18797000000
0	0	18783000000
0	0	18770000000
0	0	18756000000
0	0	18742000000
0	0	18729000000
0	0	18715000000
0	0	18702000000
0	0	18688000000
0	0	18674000000
0	0	18666000000
0	0	18659000000
0	0	18651000000
0	0	18639000000
0	0	18618000000
0	0	18596000000
0	0	18575000000
0	0	18553000000
0	0	18532000000
0	0	18510000000
0	0	18490000000
0	0	18470000000
0	0	18451000000
0	0	18431000000
0	0	18412000000
0	0	18392000000
0	0	18372000000
0	0	18353000000
0	0	18333000000
0	0	18314000000
0	0	18294000000
0	0	18275000000
0	0	18255000000
0	0	18236000000
0	0	18205000000
0	0	18171000000
0	0	18137000000
0	0	18103000000
0	0	18069000000
0	0	18036000000
0	0	18002000000
0	0	17971000000
0	0	17942000000
0	0	17912000000
0	0	17883000000
0	0	17854000000
0	0	17825000000
0	0	17796000000
0	0	17767000000
0	0	17737000000
0	0	17708000000
0	0	17679000000
0	0	17650000000
0	0	17621000000
0	0	17592000000
0	0	17564000000
0	0	17518000000
0	0	17472000000
0	0	17426000000
0	0	17380000000
0	0	17333000000
0	0	17287000000
0	0	17241000000
0	0	17195000000
0	0	17148000000
0	0	17102000000
0	0	17056000000
0	0	17010000000
0	0	16963000000
0	0	16917000000
0	0	16871000000
0	0	16825000000
0	0	16778000000
0	0	16712000000
0	0	16670000000
0	0	16627000000
0	0	16628000000
0	0	16566000000
0	0	16503000000
0	0	16441000000
0	0	16379000000
0	0	16317000000
0	0	16255000000
0	0	16193000000
0	0	16129000000
0	0	16072000000
0	0	16015000000
0	0	15959000000
0	0	15902000000
0	0	15845000000
0	0	15788000000
0	0	15731000000
0	0	15674000000
0	0	15618000000
0	0	15561000000
0	0	15504000000
0	0	15447000000
0	0	15390000000
0	0	15271000000
0	0	15197000000
0	0	15123000000
0	0	15049000000
0	0	14974000000
0	0	14900000000
0	0	14844000000
0	0	14769000000
0	0	14694000000
0	0	14619000000
0	0	14543000000
0	0	14468000000
0	0	14393000000
0	0	14318000000
0	0	14243000000
0	0	14168000000
0	0	14093000000
0	0	14017000000
0	0	13942000000
0	0	13867000000
0	0	13792000000
0	0	13708000000
0	0	13615000000
0	0	13521000000
0	0	13428000000
0	0	13335000000
0	0	13241000000
0	0	13148000000
0	0	13054000000
0	0	12961000000
0	0	12868000000
0	0	12774000000
0	0	12681000000
0	0	12587000000
0	0	12494000000
0	0	12401000000
0	0	12307000000
0	0	12214000000
0	0	12061000000
0	0	11963000000
0	0	11865000000
0	0	11767000000
0	0	11763000000
0	0	11647000000
0	0	11532000000
0	0	11416000000
0	0	11300000000
0	0	11185000000
0	0	11069000000
0	0	10954000000
0	0	10834000000
0	0	10727000000
0	0	10620000000
0	0	10514000000
0	0	10407000000
0	0	10300000000
0	0	10193000000
0	0	10087000000
0	0	9980000000
0	0	9873300000
0	0	9766600000
0	0	9659900000
0	0	9553100000
0	0	9345700000
0	0	9228600000
0	0	9111500000
0	0	8994400000
0	0	8877200000
0	0	8760100000
0	0	8688300000
0	0	8558800000
0	0	8429300000
0	0	8299800000
0	0	8170300000
0	0	8040800000
0	0	7911400000
0	0	7781900000
0	0	7652400000
0	0	7522900000
0	0	7393400000
0	0	7264000000
0	0	7134500000
0	0	7005000000
0	0	6875500000
0	0	0
0	0	0
0	0	0
0	0	0
0	0	0
0	0	0
0	0	0
0	0	0
0	0	0
0	0	0
0	0	0
0	0	0
0	0	0
0	0	0
0	0	0
0	0	0
0	0	0
0	0	0
0	0	0
0	0	0
0	0	0
0	0	0
0	0	0
0	0	0
0	0	0
0	0	0
0	0	0
0	0	0
0	0	0
0	0	0
0	0	0
0	0	0
0	0	0
0	0	0
0	0	0
0	0	0
0	0	0
0	0	0
0	0	0
0	0	0
0	0	0
0	0	0
0	0	0
0	0	0
0	0	0
0	0	0
0	0	0
0	0	0
0	0	0
0	0	0
0	0	0
0	0	0
0	0	0
0	0	0
0	0	0
0	0	0
0	0	0
0	0	0
0	0	0
0	0	0
0	0	0
0	0	0
0	0	0
0	0	0
0	0	0
0	0	0
0	0	0
0	0	0
0	0	0
0	0	0
0	0	0
0	0	0
0	0	0
0	0	0
0	0	0
0	0	0
0	0	0
0	0	0
0	0	0
0	0	0
0	0	0
0	0	0
0	0	0
0	0	0
0	0	0
0	0	0
0	0	0
0	0	0
0	0	0
0	0	0
0	0	0
0	0	0
0	0	0
0	0	0
0	0	0
0	0	0
0	0	0
0	0	0
0	0	0
0	0	0
0	0	0
0	0	0
0	0	0
0	0	0
0	0	0
0	0	0
0	0	0
0	0	0
0	0	0
0	0	0
0	0	0
0	0	0
0	0	0
0	0	0
0	0	0
0	0	0
0	0	0
0	0	0
0	0	0
0	0	0
0	0	0
0	0	0
0	0	0
0	0	0
0	0	0
0	0	0
0	0	0
0	0	0
0	0	0
0	0	0
0	0	0
0	0	0
0	0	0
0	0	0
0	0	0
0	0	0
0	0	6875900000
0	0	7005300000
0	0	7134700000
0	0	7264100000
0	0	7393500000
0	0	7522800000
0	0	7652200000
0	0	7781600000
0	0	7911000000
0	0	8040400000
0	0	8169800000
0	0	8299200000
0	0	8428600000
0	0	8558000000
0	0	8687400000
0	0	8760400000
0	0	8877500000
0	0	8994600000
0	0	9111700000
0	0	9228900000
0	0	9346000000
0	0	9553300000
0	0	9660000000
0	0	9766700000
0	0	9873400000
0	0	9980100000
0	0	10087000000
0	0	10193000000
0	0	10300000000
0	0	10407000000
0	0	10513000000
0	0	10620000000
0	0	10727000000
0	0	10834000000
0	0	10953000000
0	0	11069000000
0	0	11184000000
0	0	11300000000
0	0	11416000000
0	0	11531000000
0	0	11647000000
0	0	11762000000
0	0	11768000000
0	0	11866000000
0	0	11964000000
0	0	12062000000
0	0	12214000000
0	0	12307000000
0	0	12401000000
0	0	12494000000
0	0	12587000000
0	0	12681000000
0	0	12774000000
0	0	12867000000
0	0	12961000000
0	0	13054000000
0	0	13147000000
0	0	13241000000
0	0	13334000000
0	0	13427000000
0	0	13521000000
0	0	13614000000
0	0	13707000000
0	0	13793000000
0	0	13868000000
0	0	13943000000
0	0	14018000000
0	0	14094000000
0	0	14169000000
0	0	14244000000
0	0	14319000000
0	0	14394000000
0	0	14470000000
0	0	14545000000
0	0	14620000000
0	0	14695000000
0	0	14770000000
0	0	14846000000
0	0	14900000000
0	0	14974000000
0	0	15048000000
0	0	15122000000
0	0	15196000000
0	0	15270000000
0	0	15390000000
0	0	15447000000
0	0	15503000000
0	0	15560000000
0	0	15617000000
0	0	15674000000
0	0	15731000000
0	0	15788000000
0	0	15844000000
0	0	15901000000
0	0	15958000000
0	0	16015000000
0	0	16072000000
0	0	16128000000
0	0	16192000000
0	0	16255000000
0	0	16317000000
0	0	16379000000
0	0	16441000000
0	0	16503000000
0	0	16565000000
0	0	16627000000
0	0	16628000000
0	0	16670000000
0	0	16712000000
0	0	16779000000
0	0	16825000000
0	0	16871000000
0	0	16917000000
0	0	16963000000
0	0	17010000000
0	0	17056000000
0	0	17102000000
0	0	17148000000
0	0	17194000000
0	0	17241000000
0	0	17287000000
0	0	17333000000
0	0	17379000000
0	0	17425000000
0	0	17472000000
0	0	17518000000
0	0	17564000000
0	0	17592000000
0	0	17621000000
0	0	17650000000
0	0	17680000000
0	0	17709000000
0	0	17738000000
0	0	17767000000
0	0	17796000000
0	0	17825000000
0	0	17854000000
0	0	17883000000
0	0	17913000000
0	0	17942000000
0	0	17971000000
0	0	18001000000
0	0	18035000000
0	0	18069000000
0	0	18103000000
0	0	18137000000
0	0	18171000000
0	0	18204000000
0	0	18236000000
0	0	18255000000
0	0	18275000000
0	0	18294000000
0	0	18314000000
0	0	18333000000
0	0	18353000000
0	0	18372000000
0	0	18392000000
0	0	18412000000
0	0	18431000000
0	0	18451000000
0	0	18470000000
0	0	18490000000
0	0	18511000000
0	0	18532000000
0	0	18553000000
0	0	18575000000
0	0	18596000000
0	0	18618000000
0	0	18639000000
0	0	18652000000
0	0	18659000000
0	0	18667000000
0	0	18674000000
0	0	18688000000
0	0	18701000000
0	0	18715000000
0	0	18729000000
0	0	18742000000
0	0	18756000000
0	0	18770000000
0	0	18783000000
0	0	18797000000
0	0	18811000000
0	0	18824000000
0	0	18838000000
0	0	18852000000
0	0	18865000000
0	0	18879000000
0	0	18958000000
0	0	18944000000
0	0	18931000000
0	0	18917000000
0	0	18904000000
0	0	18890000000
0	0	18876000000
0	0	18863000000
0	0	18849000000
0	0	18835000000
0	0	18822000000
0	0	18808000000
0	0	18794000000
0	0	18781000000
0	0	18767000000
0	0	18759000000
0	0	18752000000
0	0	18745000000
0	0	18737000000
0	0	18728000000
0	0	18707000000
0	0	18685000000
0	0	18664000000
0	0	18642000000
0	0	18621000000
0	0	18599000000
0	0	18578000000
0	0	18556000000
0	0	18535000000
0	0	18515000000
0	0	18496000000
0	0	18476000000
0	0	18456000000
0	0	18437000000
0	0	18417000000
0	0	18398000000
0	0	18378000000
0	0	18359000000
0	0	18339000000
0	0	18320000000
0	0	18290000000
0	0	18256000000
0	0	18223000000
0	0	18189000000
0	0	18155000000
0	0	18121000000
0	0	18093000000
0	0	18064000000
0	0	18034000000
0	0	18005000000
0	0	17976000000
0	0	17947000000
0	0	17918000000
0	0	17889000000
0	0	17859000000
0	0	17830000000
0	0	17801000000
0	0	17772000000
0	0	17743000000
0	0	17714000000
0	0	17684000000
0	0	17655000000
0	0	17612000000
0	0	17565000000
0	0	17519000000
0	0	17473000000
0	0	17427000000
0	0	17380000000
0	0	17334000000
0	0	17288000000
0	0	17242000000
0	0	17195000000
0	0	17149000000
0	0	17103000000
0	0	17057000000
0	0	17010000000
0	0	16964000000
0	0	16918000000
0	0	16856000000
0	0	16814000000
0	0	16771000000
0	0	16729000000
0	0	16687000000
0	0	16666000000
0	0	16604000000
0	0	16542000000
0	0	16480000000
0	0	16418000000
0	0	16356000000
0	0	16294000000
0	0	16232000000
0	0	16169000000
0	0	16107000000
0	0	16050000000
0	0	15993000000
0	0	15936000000
0	0	15879000000
0	0	15822000000
0	0	15765000000
0	0	15709000000
0	0	15652000000
0	0	15595000000
0	0	15538000000
0	0	15481000000
0	0	15359000000
0	0	15284000000
0	0	15210000000
0	0	15136000000
0	0	15062000000
0	0	15014000000
0	0	14938000000
0	0	14863000000
0	0	14788000000
0	0	14713000000
0	0	14638000000
0	0	14563000000
0	0	14487000000
0	0	14412000000
0	0	14337000000
0	0	14262000000
0	0	14187000000
0	0	14112000000
0	0	14037000000
0	0	13961000000
0	0	13886000000
0	0	13797000000
0	0	13703000000
0	0	13610000000
0	0	13516000000
0	0	13423000000
0	0	13330000000
0	0	13236000000
0	0	13143000000
0	0	13049000000
0	0	12956000000
0	0	12863000000
0	0	12769000000
0	0	12676000000
0	0	12582000000
0	0	12489000000
0	0	12396000000
0	0	12253000000
0	0	12155000000
0	0	12057000000
0	0	11959000000
0	0	11861000000
0	0	11848000000
0	0	11732000000
0	0	11616000000
0	0	11501000000
0	0	11385000000
0	0	11269000000
0	0	11154000000
0	0	11038000000
0	0	10923000000
0	0	10807000000
0	0	10691000000
0	0	10585000000
0	0	10479000000
0	0	10372000000
0	0	10265000000
0	0	10158000000
0	0	10052000000
0	0	9944900000
0	0	9838200000
0	0	9731400000
0	0	9624700000
0	0	9406600000
0	0	9289500000
0	0	9172400000
0	0	9055300000
0	0	8938200000
0	0	8878300000
0	0	8748800000
0	0	8619300000
0	0	8489900000
0	0	8360400000
0	0	8230900000
0	0	8101400000
0	0	7971900000
0	0	7842400000
0	0	7713000000
0	0	7583500000
0	0	7454000000
0	0	7324500000
0	0	7195000000
0	0	7065600000
0	0	6936100000
0	0	0
0	0	0
0	0	0
0	0	0
0	0	0
0	0	0
0	0	0
0	0	0
0	0	0
0	0	0
0	0	0
0	0	0
0	0	0
0	0	0
0	0	0
0	0	0
0	0	0
0	0	0
0	0	0
0	0	0
0	0	0
0	0	0
0	0	0
0	0	0
0	0	0
0	0	0
0	0	0
0	0	0
0	0	0
0	0	0
0	0	0
0	0	0
0	0	0
0	0	0
0	0	0
0	0	0
0	0	0
0	0	0
0	0	0
0	0	0
0	0	0
0	0	0
0	0	0
0	0	0
0	0	0
0	0	0
0	0	0
0	0	0
0	0	0
0	0	0
0	0	0
0	0	0
0	0	0
0	0	0
0	0	0
0	0	0
0	0	0
0	0	0
0	0	0
0	0	0
0	0	0
0	0	0
0	0	0
0	0	0
0	0	0
0	0	0
0	0	0
0	0	0
0	0	0
0	0	0
0	0	0
0	0	0
0	0	0
0	0	0
0	0	0
0	0	0
0	0	0
0	0	0
0	0	0
0	0	0
0	0	0
0	0	0
0	0	0
0	0	0
0	0	0
0	0	0
0	0	0
0	0	0
0	0	0
0	0	0
0	0	0
0	0	0
0	0	0
0	0	0
0	0	0
0	0	0
0	0	0
0	0	0
0	0	0
0	0	0
0	0	0
0	0	0
0	0	0
0	0	0
0	0	0
0	0	0
0	0	0
0	0	0
0	0	0
0	0	0
0	0	0
0	0	0
0	0	0
0	0	0
0	0	0
0	0	0
0	0	0
0	0	0
0	0	0
0	0	0
0	0	0
0	0	0
0	0	0
0	0	0
0	0	0
0	0	0
0	0	0
0	0	0
0	0	0
0	0	0
0	0	0
0	0	0
0	0	0
0	0	0
0	0	0
0	0	0
0	0	6936600000
0	0	7065900000
0	0	7195300000
0	0	7324700000
0	0	7454100000
0	0	7583500000
0	0	7712900000
0	0	7842300000
0	0	7971700000
0	0	8101100000
0	0	8230500000
0	0	8359800000
0	0	8489200000
0	0	8618600000
0	0	8748000000
0	0	8877400000
0	0	8938500000
0	0	9055600000
0	0	9172800000
0	0	9289900000
0	0	9407000000
0	0	9624900000
0	0	9731600000
0	0	9838200000
0	0	9944900000
0	0	10052000000
0	0	10158000000
0	0	10265000000
0	0	10372000000
0	0	10478000000
0	0	10585000000
0	0	10691000000
0	0	10807000000
0	0	10922000000
0	0	11038000000
0	0	11153000000
0	0	11269000000
0	0	11385000000
0	0	11500000000
0	0	11616000000
0	0	11731000000
0	0	11847000000
0	0	11862000000
0	0	11960000000
0	0	12058000000
0	0	12156000000
0	0	12254000000
0	0	12396000000
0	0	12489000000
0	0	12582000000
0	0	12676000000
0	0	12769000000
0	0	12862000000
0	0	12956000000
0	0	13049000000
0	0	13142000000
0	0	13236000000
0	0	13329000000
0	0	13422000000
0	0	13516000000
0	0	13609000000
0	0	13702000000
0	0	13796000000
0	0	13887000000
0	0	13962000000
0	0	14037000000
0	0	14113000000
0	0	14188000000
0	0	14263000000
0	0	14338000000
0	0	14413000000
0	0	14489000000
0	0	14564000000
0	0	14639000000
0	0	14714000000
0	0	14789000000
0	0	14865000000
0	0	14940000000
0	0	15015000000
0	0	15062000000
0	0	15136000000
0	0	15210000000
0	0	15284000000
0	0	15358000000
0	0	15481000000
0	0	15538000000
0	0	15594000000
0	0	15651000000
0	0	15708000000
0	0	15765000000
0	0	15822000000
0	0	15879000000
0	0	15935000000
0	0	15992000000
0	0	16049000000
0	0	16107000000
0	0	16169000000
0	0	16231000000
0	0	16293000000
0	0	16355000000
0	0	16417000000
0	0	16480000000
0	0	16542000000
0	0	16604000000
0	0	16666000000
0	0	16688000000
0	0	16730000000
0	0	16772000000
0	0	16814000000
0	0	16856000000
0	0	16918000000
0	0	16964000000
0	0	17011000000
0	0	17057000000
0	0	17103000000
0	0	17149000000
0	0	17195000000
0	0	17242000000
0	0	17288000000
0	0	17334000000
0	0	17380000000
0	0	17426000000
0	0	17473000000
0	0	17519000000
0	0	17565000000
0	0	17611000000
0	0	17656000000
0	0	17685000000
0	0	17714000000
0	0	17743000000
0	0	17772000000
0	0	17801000000
0	0	17831000000
0	0	17860000000
0	0	17889000000
0	0	17918000000
0	0	17947000000
0	0	17976000000
0	0	18005000000
0	0	18035000000
0	0	18064000000
0	0	18093000000
0	0	18120000000
0	0	18154000000
0	0	18188000000
0	0	18222000000
0	0	18256000000
0	0	18290000000
0	0	18320000000
0	0	18339000000
0	0	18359000000
0	0	18378000000
0	0	18398000000
0	0	18417000000
0	0	18437000000
0	0	18456000000
0	0	18476000000
0	0	18495000000
0	0	18515000000
0	0	18535000000
0	0	18557000000
0	0	18578000000
0	0	18599000000
0	0	18621000000
0	0	18642000000
0	0	18664000000
0	0	18685000000
0	0	18707000000
0	0	18728000000
0	0	18738000000
0	0	18745000000
0	0	18753000000
0	0	18760000000
0	0	18767000000
0	0	18780000000
0	0	18794000000
0	0	18808000000
0	0	18821000000
0	0	18835000000
0	0	18849000000
0	0	18862000000
0	0	18876000000
0	0	18890000000
0	0	18903000000
0	0	18917000000
0	0	18931000000
0	0	18944000000
0	0	18958000000
0	0	19037000000
0	0	19024000000
0	0	19010000000
0	0	18996000000
0	0	18983000000
0	0	18969000000
0	0	18956000000
0	0	18942000000
0	0	18928000000
0	0	18915000000
0	0	18901000000
0	0	18887000000
0	0	18874000000
0	0	18860000000
0	0	18853000000
0	0	18845000000
0	0	18838000000
0	0	18830000000
0	0	18823000000
0	0	18817000000
0	0	18796000000
0	0	18774000000
0	0	18753000000
0	0	18731000000
0	0	18710000000
0	0	18688000000
0	0	18667000000
0	0	18645000000
0	0	18624000000
0	0	18602000000
0	0	18581000000
0	0	18560000000
0	0	18540000000
0	0	18521000000
0	0	18501000000
0	0	18482000000
0	0	18462000000
0	0	18443000000
0	0	18423000000
0	0	18404000000
0	0	18384000000
0	0	18342000000
0	0	18308000000
0	0	18274000000
0	0	18240000000
0	0	18215000000
0	0	18186000000
0	0	18156000000
0	0	18127000000
0	0	18098000000
0	0	18069000000
0	0	18040000000
0	0	18011000000
0	0	17981000000
0	0	17952000000
0	0	17923000000
0	0	17894000000
0	0	17865000000
0	0	17836000000
0	0	17806000000
0	0	17777000000
0	0	17748000000
0	0	17705000000
0	0	17659000000
0	0	17613000000
0	0	17566000000
0	0	17520000000
0	0	17474000000
0	0	17428000000
0	0	17381000000
0	0	17335000000
0	0	17289000000
0	0	17243000000
0	0	17196000000
0	0	17150000000
0	0	17104000000
0	0	17042000000
0	0	17000000000
0	0	16958000000
0	0	16915000000
0	0	16873000000
0	0	16831000000
0	0	16789000000
0	0	16767000000
0	0	16705000000
0	0	16643000000
0	0	16581000000
0	0	16519000000
0	0	16457000000
0	0	16394000000
0	0	16332000000
0	0	16270000000
0	0	16208000000
0	0	16146000000
0	0	16084000000
0	0	16022000000
0	0	15970000000
0	0	15913000000
0	0	15856000000
0	0	15800000000
0	0	15743000000
0	0	15686000000
0	0	15629000000
0	0	15572000000
0	0	15446000000
0	0	15372000000
0	0	15298000000
0	0	15224000000
0	0	15183000000
0	0	15108000000
0	0	15033000000
0	0	14957000000
0	0	14882000000
0	0	14807000000
0	0	14732000000
0	0	14657000000
0	0	14582000000
0	0	14507000000
0	0	14431000000
0	0	14356000000
0	0	14281000000
0	0	14206000000
0	0	14131000000
0	0	14056000000
0	0	13980000000
0	0	13885000000
0	0	13792000000
0	0	13698000000
0	0	13605000000
0	0	13512000000
0	0	13418000000
0	0	13325000000
0	0	13231000000
0	0	13138000000
0	0	13044000000
0	0	12951000000
0	0	12858000000
0	0	12764000000
0	0	12671000000
0	0	12577000000
0	0	12446000000
0	0	12348000000
0	0	12249000000
0	0	12151000000
0	0	12053000000
0	0	11955000000
0	0	11932000000
0	0	11817000000
0	0	11701000000
0	0	11585000000
0	0	11470000000
0	0	11354000000
0	0	11239000000
0	0	11123000000
0	0	11007000000
0	0	10892000000
0	0	10776000000
0	0	10660000000
0	0	10545000000
0	0	10429000000
0	0	10337000000
0	0	10230000000
0	0	10123000000
0	0	10016000000
0	0	9909800000
0	0	9803000000
0	0	9696300000
0	0	9467600000
0	0	9350500000
0	0	9233400000
0	0	9116300000
0	0	9068300000
0	0	8938900000
0	0	8809400000
0	0	8679900000
0	0	8550400000
0	0	8420900000
0	0	8291500000
0	0	8162000000
0	0	8032500000
0	0	7903000000
0	0	7773500000
0	0	7644000000
0	0	7514600000
0	0	7385100000
0	0	7255600000
0	0	7126100000
0	0	6996600000
0	0	6867200000
0	0	0
0	0	0
0	0	0
0	0	0
0	0	0
0	0	0
0	0	0
0	0	0
0	0	0
0	0	0
0	0	0
0	0	0
0	0	0
0	0	0
0	0	0
0	0	0
0	0	0
0	0	0
0	0	0
0	0	0
0	0	0
0	0	0
0	0	0
0	0	0
0	0	0
0	0	0
0	0	0
0	0	0
0	0	0
0	0	0
0	0	0
0	0	0
0	0	0
0	0	0
0	0	0
0	0	0
0	0	0
0	0	0
0	0	0
0	0	0
0	0	0
0	0	0
0	0	0
0	0	0
0	0	0
0	0	0
0	0	0
0	0	0
0	0	0
0	0	0
0	0	0
0	0	0
0	0	0
0	0	0
0	0	0
0	0	0
0	0	0
0	0	0
0	0	0
0	0	0
0	0	0
0	0	0
0	0	0
0	0	0
0	0	0
0	0	0
0	0	0
0	0	0
0	0	0
0	0	0
0	0	0
0	0	0
0	0	0
0	0	0
0	0	0
0	0	0
0	0	0
0	0	0
0	0	0
0	0	0
0	0	0
0	0	0
0	0	0
0	0	0
0	0	0
0	0	0
0	0	0
0	0	0
0	0	0
0	0	0
0	0	0
0	0	0
0	0	0
0	0	0
0	0	0
0	0	0
0	0	0
0	0	0
0	0	0
0	0	0
0	0	0
0	0	0
0	0	0
0	0	0
0	0	0
0	0	0
0	0	0
0	0	0
0	0	0
0	0	0
0	0	0
0	0	0
0	0	0
0	0	0
0	0	0
0	0	0
0	0	0
0	0	0
0	0	0
0	0	0
0	0	0
0	0	0
0	0	0
0	0	0
0	0	0
0	0	0
0	0	0
0	0	0
0	0	0
0	0	0
0	0	0
0	0	0
0	0	0
0	0	0
0	0	6867800000
0	0	6997200000
0	0	7126600000
0	0	7256000000
0	0	7385400000
0	0	7514800000
0	0	7644200000
0	0	7773600000
0	0	7902900000
0	0	8032300000
0	0	8161700000
0	0	8291100000
0	0	8420500000
0	0	8549900000
0	0	8679300000
0	0	8808700000
0	0	8938100000
0	0	9067500000
0	0	9116700000
0	0	9233800000
0	0	9350900000
0	0	9468000000
0	0	9696400000
0	0	9803100000
0	0	9909800000
0	0	10016000000
0	0	10123000000
0	0	10230000000
0	0	10337000000
0	0	10429000000
0	0	10545000000
0	0	10660000000
0	0	10776000000
0	0	10891000000
0	0	11007000000
0	0	11123000000
0	0	11238000000
0	0	11354000000
0	0	11469000000
0	0	11585000000
0	0	11701000000
0	0	11816000000
0	0	11932000000
0	0	11956000000
0	0	12054000000
0	0	12152000000
0	0	12250000000
0	0	12348000000
0	0	12446000000
0	0	12577000000
0	0	12671000000
0	0	12764000000
0	0	12857000000
0	0	12951000000
0	0	13044000000
0	0	13137000000
0	0	13231000000
0	0	13324000000
0	0	13417000000
0	0	13511000000
0	0	13604000000
0	0	13697000000
0	0	13791000000
0	0	13884000000
0	0	13981000000
0	0	14056000000
0	0	14132000000
0	0	14207000000
0	0	14282000000
0	0	14357000000
0	0	14432000000
0	0	14508000000
0	0	14583000000
0	0	14658000000
0	0	14733000000
0	0	14808000000
0	0	14884000000
0	0	14959000000
0	0	15034000000
0	0	15109000000
0	0	15185000000
0	0	15223000000
0	0	15298000000
0	0	15372000000
0	0	15446000000
0	0	15572000000
0	0	15629000000
0	0	15685000000
0	0	15742000000
0	0	15799000000
0	0	15856000000
0	0	15913000000
0	0	15969000000
0	0	16021000000
0	0	16083000000
0	0	16145000000
0	0	16207000000
0	0	16270000000
0	0	16332000000
0	0	16394000000
0	0	16456000000
0	0	16518000000
0	0	16580000000
0	0	16643000000
0	0	16705000000
0	0	16767000000
0	0	16790000000
0	0	16832000000
0	0	16874000000
0	0	16916000000
0	0	16958000000
0	0	17000000000
0	0	17042000000
0	0	17104000000
0	0	17150000000
0	0	17196000000
0	0	17243000000
0	0	17289000000
0	0	17335000000
0	0	17381000000
0	0	17427000000
0	0	17474000000
0	0	17520000000
0	0	17566000000
0	0	17612000000
0	0	17658000000
0	0	17705000000
0	0	17749000000
0	0	17778000000
0	0	17807000000
0	0	17836000000
0	0	17865000000
0	0	17894000000
0	0	17923000000
0	0	17952000000
0	0	17982000000
0	0	18011000000
0	0	18040000000
0	0	18069000000
0	0	18098000000
0	0	18127000000
0	0	18156000000
0	0	18186000000
0	0	18215000000
0	0	18240000000
0	0	18274000000
0	0	18307000000
0	0	18341000000
0	0	18384000000
0	0	18404000000
0	0	18423000000
0	0	18443000000
0	0	18462000000
0	0	18482000000
0	0	18501000000
0	0	18521000000
0	0	18540000000
0	0	18560000000
0	0	18581000000
0	0	18603000000
0	0	18624000000
0	0	18645000000
0	0	18667000000
0	0	18688000000
0	0	18710000000
0	0	18731000000
0	0	18753000000
0	0	18774000000
0	0	18795000000
0	0	18817000000
0	0	18824000000
0	0	18831000000
0	0	18839000000
0	0	18846000000
0	0	18853000000
0	0	18861000000
0	0	18873000000
0	0	18887000000
0	0	18901000000
0	0	18914000000
0	0	18928000000
0	0	18942000000
0	0	18955000000
0	0	18969000000
0	0	18983000000
0	0	18996000000
0	0	19010000000
0	0	19024000000
0	0	19037000000
0	0	19117000000
0	0	19103000000
0	0	19089000000
0	0	19076000000
0	0	19062000000
0	0	19048000000
0	0	19035000000
0	0	19021000000
0	0	19008000000
0	0	18994000000
0	0	18980000000
0	0	18967000000
0	0	18953000000
0	0	18946000000
0	0	18939000000
0	0	18931000000
0	0	18924000000
0	0	18916000000
0	0	18909000000
0	0	18902000000
0	0	18885000000
0	0	18863000000
0	0	18842000000
0	0	18820000000
0	0	18799000000
0	0	18777000000
0	0	18756000000
0	0	18734000000
0	0	18713000000
0	0	18691000000
0	0	18670000000
0	0	18649000000
0	0	18627000000
0	0	18606000000
0	0	18584000000
0	0	18566000000
0	0	18546000000
0	0	18527000000
0	0	18507000000
0	0	18487000000
0	0	18468000000
0	0	18427000000
0	0	18393000000
0	0	18359000000
0	0	18337000000
0	0	18308000000
0	0	18278000000
0	0	18249000000
0	0	18220000000
0	0	18191000000
0	0	18162000000
0	0	18133000000
0	0	18103000000
0	0	18074000000
0	0	18045000000
0	0	18016000000
0	0	17987000000
0	0	17958000000
0	0	17928000000
0	0	17899000000
0	0	17870000000
0	0	17841000000
0	0	17798000000
0	0	17752000000
0	0	17706000000
0	0	17660000000
0	0	17613000000
0	0	17567000000
0	0	17521000000
0	0	17475000000
0	0	17428000000
0	0	17382000000
0	0	17336000000
0	0	17290000000
0	0	17243000000
0	0	17186000000
0	0	17144000000
0	0	17101000000
0	0	17059000000
0	0	17017000000
0	0	16975000000
0	0	16933000000
0	0	16890000000
0	0	16868000000
0	0	16806000000
0	0	16744000000
0	0	16682000000
0	0	16619000000
0	0	16557000000
0	0	16495000000
0	0	16433000000
0	0	16371000000
0	0	16309000000
0	0	16247000000
0	0	16185000000
0	0	16123000000
0	0	16060000000
0	0	15998000000
0	0	15936000000
0	0	15891000000
0	0	15834000000
0	0	15777000000
0	0	15720000000
0	0	15663000000
0	0	15534000000
0	0	15460000000
0	0	15386000000
0	0	15352000000
0	0	15277000000
0	0	15202000000
0	0	15127000000
0	0	15052000000
0	0	14977000000
0	0	14901000000
0	0	14826000000
0	0	14751000000
0	0	14676000000
0	0	14601000000
0	0	14526000000
0	0	14451000000
0	0	14375000000
0	0	14300000000
0	0	14225000000
0	0	14150000000
0	0	14075000000
0	0	13974000000
0	0	13880000000
0	0	13787000000
0	0	13693000000
0	0	13600000000
0	0	13507000000
0	0	13413000000
0	0	13320000000
0	0	13226000000
0	0	13133000000
0	0	13039000000
0	0	12946000000
0	0	12853000000
0	0	12736000000
0	0	12638000000
0	0	12540000000
0	0	12442000000
0	0	12344000000
0	0	12245000000
0	0	12147000000
0	0	12049000000
0	0	12017000000
0	0	11901000000
0	0	11786000000
0	0	11670000000
0	0	11554000000
0	0	11439000000
0	0	11323000000
0	0	11208000000
0	0	11092000000
0	0	10976000000
0	0	10861000000
0	0	10745000000
0	0	10629000000
0	0	10514000000
0	0	10398000000
0	0	10283000000
0	0	10167000000
0	0	10088000000
0	0	9981300000
0	0	9874600000
0	0	9767900000
0	0	9661200000
0	0	9411500000
0	0	9294400000
0	0	9258400000
0	0	9128900000
0	0	8999400000
0	0	8869900000
0	0	8740500000
0	0	8611000000
0	0	8481500000
0	0	8352000000
0	0	8222500000
0	0	8093100000
0	0	7963600000
0	0	7834100000
0	0	7704600000
0	0	7575100000
0	0	7445600000
0	0	7316200000
0	0	7186700000
0	0	7057200000
0	0	6927700000
0	0	0
0	0	0
0	0	0
0	0	0
0	0	0
0	0	0
0	0	0
0	0	0
0	0	0
0	0	0
0	0	0
0	0	0
0	0	0
0	0	0
0	0	0
0	0	0
0	0	0
0	0	0
0	0	0
0	0	0
0	0	0
0	0	0
0	0	0
0	0	0
0	0	0
0	0	0
0	0	0
0	0	0
0	0	0
0	0	0
0	0	0
0	0	0
0	0	0
0	0	0
0	0	0
0	0	0
0	0	0
0	0	0
0	0	0
0	0	0
0	0	0
0	0	0
0	0	0
0	0	0
0	0	0
0	0	0
0	0	0
0	0	0
0	0	0
0	0	0
0	0	0
0	0	0
0	0	0
0	0	0
0	0	0
0	0	0
0	0	0
0	0	0
0	0	0
0	0	0
0	0	0
0	0	0
0	0	0
0	0	0
0	0	0
0	0	0
0	0	0
0	0	0
0	0	0
0	0	0
0	0	0
0	0	0
0	0	0
0	0	0
0	0	0
0	0	0
0	0	0
0	0	0
0	0	0
0	0	0
0	0	0
0	0	0
0	0	0
0	0	0
0	0	0
0	0	0
0	0	0
0	0	0
0	0	0
0	0	0
0	0	0
0	0	0
0	0	0
0	0	0
0	0	0
0	0	0
0	0	0
0	0	0
0	0	0
0	0	0
0	0	0
0	0	0
0	0	0
0	0	0
0	0	0
0	0	0
0	0	0
0	0	0
0	0	0
0	0	0
0	0	0
0	0	0
0	0	0
0	0	0
0	0	0
0	0	0
0	0	0
0	0	0
0	0	0
0	0	0
0	0	0
0	0	0
0	0	0
0	0	0
0	0	0
0	0	0
0	0	0
0	0	0
0	0	0
0	0	0
0	0	0
0	0	0
0	0	0
0	0	0
0	0	6928500000
0	0	7057900000
0	0	7187300000
0	0	7316700000
0	0	7446000000
0	0	7575400000
0	0	7704800000
0	0	7834200000
0	0	7963600000
0	0	8093000000
0	0	8222400000
0	0	8351800000
0	0	8481200000
0	0	8610600000
0	0	8739900000
0	0	8869300000
0	0	8998700000
0	0	9128100000
0	0	9257500000
0	0	9294800000
0	0	9411900000
0	0	9661200000
0	0	9767900000
0	0	9874600000
0	0	9981300000
0	0	10088000000
0	0	10167000000
0	0	10282000000
0	0	10398000000
0	0	10514000000
0	0	10629000000
0	0	10745000000
0	0	10860000000
0	0	10976000000
0	0	11092000000
0	0	11207000000
0	0	11323000000
0	0	11438000000
0	0	11554000000
0	0	11670000000
0	0	11785000000
0	0	11901000000
0	0	12016000000
0	0	12050000000
0	0	12148000000
0	0	12246000000
0	0	12344000000
0	0	12442000000
0	0	12540000000
0	0	12638000000
0	0	12736000000
0	0	12852000000
0	0	12946000000
0	0	13039000000
0	0	13132000000
0	0	13226000000
0	0	13319000000
0	0	13412000000
0	0	13506000000
0	0	13599000000
0	0	13692000000
0	0	13786000000
0	0	13879000000
0	0	13972000000
0	0	14075000000
0	0	14151000000
0	0	14226000000
0	0	14301000000
0	0	14376000000
0	0	14451000000
0	0	14527000000
0	0	14602000000
0	0	14677000000
0	0	14752000000
0	0	14828000000
0	0	14903000000
0	0	14978000000
0	0	15053000000
0	0	15128000000
0	0	15204000000
0	0	15279000000
0	0	15354000000
0	0	15385000000
0	0	15459000000
0	0	15533000000
0	0	15663000000
0	0	15720000000
0	0	15776000000
0	0	15833000000
0	0	15890000000
0	0	15935000000
0	0	15997000000
0	0	16060000000
0	0	16122000000
0	0	16184000000
0	0	16246000000
0	0	16308000000
0	0	16370000000
0	0	16433000000
0	0	16495000000
0	0	16557000000
0	0	16619000000
0	0	16681000000
0	0	16743000000
0	0	16806000000
0	0	16868000000
0	0	16891000000
0	0	16933000000
0	0	16975000000
0	0	17018000000
0	0	17060000000
0	0	17102000000
0	0	17144000000
0	0	17186000000
0	0	17244000000
0	0	17290000000
0	0	17336000000
0	0	17382000000
0	0	17428000000
0	0	17475000000
0	0	17521000000
0	0	17567000000
0	0	17613000000
0	0	17659000000
0	0	17706000000
0	0	17752000000
0	0	17798000000
0	0	17841000000
0	0	17870000000
0	0	17900000000
0	0	17929000000
0	0	17958000000
0	0	17987000000
0	0	18016000000
0	0	18045000000
0	0	18074000000
0	0	18104000000
0	0	18133000000
0	0	18162000000
0	0	18191000000
0	0	18220000000
0	0	18249000000
0	0	18278000000
0	0	18307000000
0	0	18337000000
0	0	18359000000
0	0	18393000000
0	0	18427000000
0	0	18468000000
0	0	18488000000
0	0	18507000000
0	0	18527000000
0	0	18546000000
0	0	18566000000
0	0	18584000000
0	0	18606000000
0	0	18627000000
0	0	18649000000
0	0	18670000000
0	0	18691000000
0	0	18713000000
0	0	18734000000
0	0	18756000000
0	0	18777000000
0	0	18799000000
0	0	18820000000
0	0	18841000000
0	0	18863000000
0	0	18884000000
0	0	18902000000
0	0	18910000000
0	0	18917000000
0	0	18925000000
0	0	18932000000
0	0	18939000000
0	0	18947000000
0	0	18954000000
0	0	18966000000
0	0	18980000000
0	0	18994000000
0	0	19007000000
0	0	19021000000
0	0	19035000000
0	0	19048000000
0	0	19062000000
0	0	19076000000
0	0	19089000000
0	0	19103000000
0	0	19117000000
0	0	19196000000
0	0	19182000000
0	0	19169000000
0	0	19155000000
0	0	19141000000
0	0	19128000000
0	0	19114000000
0	0	19100000000
0	0	19087000000
0	0	19073000000
0	0	19060000000
0	0	19047000000
0	0	19039000000
0	0	19032000000
0	0	19025000000
0	0	19017000000
0	0	19010000000
0	0	19002000000
0	0	18995000000
0	0	18988000000
0	0	18973000000
0	0	18952000000
0	0	18931000000
0	0	18909000000
0	0	18888000000
0	0	18866000000
0	0	18845000000
0	0	18823000000
0	0	18802000000
0	0	18780000000
0	0	18759000000
0	0	18737000000
0	0	18716000000
0	0	18695000000
0	0	18673000000
0	0	18652000000
0	0	18630000000
0	0	18609000000
0	0	18591000000
0	0	18571000000
0	0	18552000000
0	0	18513000000
0	0	18488000000
0	0	18459000000
0	0	18430000000
0	0	18400000000
0	0	18371000000
0	0	18342000000
0	0	18313000000
0	0	18284000000
0	0	18255000000
0	0	18225000000
0	0	18196000000
0	0	18167000000
0	0	18138000000
0	0	18109000000
0	0	18080000000
0	0	18050000000
0	0	18021000000
0	0	17992000000
0	0	17963000000
0	0	17934000000
0	0	17892000000
0	0	17846000000
0	0	17799000000
0	0	17753000000
0	0	17707000000
0	0	17661000000
0	0	17614000000
0	0	17568000000
0	0	17522000000
0	0	17476000000
0	0	17429000000
0	0	17383000000
0	0	17330000000
0	0	17288000000
0	0	17245000000
0	0	17203000000
0	0	17161000000
0	0	17119000000
0	0	17077000000
0	0	17034000000
0	0	16992000000
0	0	16969000000
0	0	16907000000
0	0	16845000000
0	0	16782000000
0	0	16720000000
0	0	16658000000
0	0	16596000000
0	0	16534000000
0	0	16472000000
0	0	16410000000
0	0	16348000000
0	0	16285000000
0	0	16223000000
0	0	16161000000
0	0	16099000000
0	0	16037000000
0	0	15975000000
0	0	15913000000
0	0	15851000000
0	0	15811000000
0	0	15754000000
0	0	15622000000
0	0	15548000000
0	0	15522000000
0	0	15447000000
0	0	15372000000
0	0	15296000000
0	0	15221000000
0	0	15146000000
0	0	15071000000
0	0	14996000000
0	0	14921000000
0	0	14845000000
0	0	14770000000
0	0	14695000000
0	0	14620000000
0	0	14545000000
0	0	14470000000
0	0	14395000000
0	0	14319000000
0	0	14244000000
0	0	14169000000
0	0	14094000000
0	0	13969000000
0	0	13875000000
0	0	13782000000
0	0	13688000000
0	0	13595000000
0	0	13502000000
0	0	13408000000
0	0	13315000000
0	0	13221000000
0	0	13128000000
0	0	13034000000
0	0	12928000000
0	0	12830000000
0	0	12732000000
0	0	12634000000
0	0	12536000000
0	0	12438000000
0	0	12340000000
0	0	12241000000
0	0	12143000000