# t (s)	mx ()	my ()	mz ()	MaxAngle (rad)	phi (degree)	f_RF (GHz)
0	1	0	0	0	0	4e+09
5.141436545303758e-12	0.9999886	9.181608e-06	-2.937414e-05	0.009710576	0	4e+09
1.0092848167237877e-11	0.9999504	6.0378712e-05	-0.00011090744	0.014737817	0	4e+09
1.501565483218147e-11	0.9998688	0.00018666266	-0.00023943216	0.018305918	0	4e+09
2.014032507137705e-11	0.9997117	0.00043046486	-0.0004175305	0.021606522	0	4e+09
2.5128829652992636e-11	0.99945813	0.00080518116	-0.00062717195	0.023963694	0	4e+09
3.01208818386266e-11	0.9990737	0.0013374771	-0.00086457055	0.02782436	0	4e+09
3.512068652138515e-11	0.99852645	0.00204355	-0.0011208542	0.029784257	0	4e+09
4.011696899101545e-11	0.99778444	0.0029302856	-0.0013854712	0.029860217	0	4e+09
4.506029591697034e-11	0.99682623	0.0039865933	-0.0016452201	0.030562682	0	4e+09
5.0161692600043723e-11	0.99557257	0.005255949	-0.0018997126	0.031375017	0	4e+09
5.5091016603977775e-11	0.9940849	0.00664046	-0.0021214217	0.030179929	0	4e+09
6.001604179590542e-11	0.9923216	0.008156589	-0.0023085	0.034436785	0	4e+09
6.508425746031247e-11	0.99023485	0.009825051	-0.0024546473	0.036968254	0	4e+09
7.014202370107843e-11	0.9879213	0.011562351	-0.0025442156	0.037781775	0	4e+09
7.50584035633646e-11	0.9855192	0.013280138	-0.002570103	0.039415956	0	4e+09
8.01432652605816e-11	0.98296905	0.0150420545	-0.0025280265	0.040907886	0	4e+09
8.503192613231897e-11	0.9805567	0.016677752	-0.0024186738	0.040249653	0	4e+09
9.005983383857323e-11	0.9782253	0.018254694	-0.002235071	0.037303783	0	4e+09
9.507935443111176e-11	0.9761533	0.019676978	-0.0019813264	0.03362924	0	4e+09
1.0011007329545549e-10	0.9744232	0.020905504	-0.0016598922	0.030164123	0	4e+09
1.0515684159746905e-10	0.9731051	0.021897312	-0.0012751932	0.02977625	0	4e+09
1.1004491955312763e-10	0.97226757	0.022590803	-0.000849585	0.029792262	0	4e+09
1.1510153789470588e-10	0.97187185	0.022996657	-0.00036234205	0.029504735	0	4e+09
1.2015156095047123e-10	0.97194487	0.02305507	0.0001627907	0.029452154	0	4e+09
1.2502718532539874e-10	0.9724291	0.022758724	0.00069681206	0.029567303	0	4e+09
1.3006952583791556e-10	0.9733087	0.022069465	0.0012664982	0.029470367	0	4e+09
1.3511517074809624e-10	0.9745114	0.020978764	0.0018430261	0.02911627	0	4e+09
1.4016478284350682e-10	0.97596586	0.019481981	0.0024147255	0.02854977	0	4e+09
1.4504815566122337e-10	0.97753966	0.01765344	0.0029513368	0.027841495	0	4e+09
1.5009995114867456e-10	0.9792671	0.015380837	0.003478001	0.02699796	0	4e+09
1.5515033964453174e-10	0.98102474	0.012743948	0.003963988	0.026179636	0	4e+09
1.6003121333373792e-10	0.98269206	0.009878433	0.004384512	0.025513094	0	4e+09
1.6508018761340716e-10	0.9843304	0.0066252206	0.0047582756	0.024783013	0	4e+09
1.7013005470014718e-10	0.9858362	0.0031252005	0.0050600283	0.024053078	0	4e+09
1.75012863950403e-10	0.9871333	-0.00044083528	0.005274904	0.023348851	0	4e+09
1.8006466395859049e-10	0.98828745	-0.0042578615	0.0054101837	0.022701629	0	4e+09
1.8511562991251143e-10	0.9892372	-0.00813704	0.005450749	0.022389641	0	4e+09
1.9016512261670674e-10	0.98997825	-0.012006092	0.005391961	0.02219175	0	4e+09
1.950450368214993e-10	0.9905004	-0.015666738	0.005237969	0.02204352	0	4e+09
2.000918130076966e-10	0.9908508	-0.019297993	0.004977134	0.0219975	0	4e+09
2.0513749179278704e-10	0.99102426	-0.022697069	0.004613886	0.022105629	0	4e+09
2.1001419636244413e-10	0.9910423	-0.025693623	0.0041680257	0.022298936	0	4e+09
2.1505840367919127e-10	0.9909271	-0.028426621	0.0036134562	0.022567315	0	4e+09
2.2010191640658645e-10	0.9906968	-0.030722348	0.0029706596	0.022806417	0	4e+09
2.251451382235296e-10	0.99037147	-0.032522168	0.0022482465	0.023050798	0	4e+09
2.3001995791430415e-10	0.9899828	-0.03374218	0.0014840642	0.0233463	0	4e+09
2.350624550558954e-10	0.9895172	-0.034424618	0.0006372209	0.02364819	0	4e+09
2.401043218223906e-10	0.9889966	-0.03448441	-0.00025337434	0.023801457	0	4e+09
2.4514564060547175e-10	0.98842627	-0.033898428	-0.0011728042	0.023888951	0	4e+09
2.5001835196592405e-10	0.9878291	-0.032706883	-0.0020739387	0.023988556	0	4e+09
2.550587875825784e-10	0.98716277	-0.030827353	-0.0030026	0.024169277	0	4e+09
2.6009906666934977e-10	0.986444	-0.028301781	-0.003910467	0.024314359	0	4e+09
2.651392481597194e-10	0.9856685	-0.025154669	-0.004779864	0.024250532	0	4e+09
2.7001121700007905e-10	0.9848619	-0.021556612	-0.00556711	0.024092698	0	4e+09
2.7505122783142525e-10	0.98396635	-0.01730731	-0.006309752	0.024018357	0	4e+09
2.800909138974755e-10	0.9830099	-0.012582703	-0.0069630514	0.02387897	0	4e+09
2.8513054097560665e-10	0.9819972	-0.0074545885	-0.0075116833	0.023733739	0	4e+09
2.9000214715569846e-10	0.9809741	-0.0021905776	-0.007929543	0.02365827	0	4e+09
2.9504181040639166e-10	0.9798846	0.0034852093	-0.008233903	0.023638103	0	4e+09
3.0008133556821276e-10	0.97878295	0.009299946	-0.008398718	0.023597721	0	4e+09
3.051208149514234e-10	0.9776927	0.015153392	-0.00841709	0.023665829	0	4e+09
3.101604053831894e-10	0.9766403	0.020943137	-0.008285041	0.023826487	0	4e+09
3.1503176028535744e-10	0.97568494	0.026382323	-0.008013592	0.024043163	0	4e+09
3.200711052281639e-10	0.9747881	0.031748187	-0.0075862417	0.02434376	0	4e+09
3.251104188530139e-10	0.97400975	0.03675244	-0.0070152697	0.02462859	0	4e+09
3.3014987061149284e-10	0.97337323	0.04130323	-0.006309175	0.024838272	0	4e+09
3.350214309350851e-10	0.97291005	0.0451912	-0.0055088806	0.02552711	0	4e+09
3.4006106664233004e-10	0.9726016	0.048609693	-0.0045727794	0.026138617	0	4e+09
3.451010396284268e-10	0.9724736	0.051347863	-0.0035426137	0.026275096	0	4e+09
3.5014101030675e-10	0.97252643	0.053348657	-0.0024365229	0.026953764	0	4e+09
3.550128833537879e-10	0.97274286	0.05453929	-0.0013135225	0.0273337	0	4e+09
3.600527881362744e-10	0.97312534	0.05496999	-0.0001161615	0.0273555	0	4e+09
3.650931897849993e-10	0.97364956	0.054566655	0.0010965466	0.027061917	0	4e+09
3.7013352360905354e-10	0.9742909	0.05332337	0.0023029866	0.026619952	0	4e+09
3.750061533116999e-10	0.97499526	0.05133093	0.0034432958	0.026213769	0	4e+09
3.8004667886499626e-10	0.97578037	0.048474327	0.004575786	0.025916455	0	4e+09
3.850872416944468e-10	0.9765905	0.044845667	0.00564065	0.025734104	0	4e+09
3.90127932642831e-10	0.97739273	0.040496346	0.0066190916	0.025562115	0	4e+09
3.950006913305122e-10	0.9781314	0.035668142	0.0074663614	0.025273649	0	4e+09
4.000415632407703e-10	0.9788299	0.030103693	0.008225478	0.024768576	0	4e+09
4.0508249187755936e-10	0.97943753	0.02404827	0.008851349	0.02406299	0	4e+09
4.10123302186842e-10	0.97993475	0.01760173	0.00933193	0.023620445	0	4e+09
4.1516414368063193e-10	0.9803081	0.010872148	0.009657467	0.023473615	0	4e+09
4.200371708127758e-10	0.9805437	0.0042056474	0.009817856	0.023272134	0	4e+09
4.2507835759376813e-10	0.98065543	-0.0027411038	0.009819483	0.02335906	0	4e+09
4.3011969765107053e-10	0.9806362	-0.009618403	0.009651968	0.023617921	0	4e+09
4.3516122530205493e-10	0.98049396	-0.016304007	0.009316004	0.023876471	0	4e+09
4.4003472592377327e-10	0.9802504	-0.022471301	0.008834448	0.024124842	0	4e+09
4.4507617064620345e-10	0.9799037	-0.028432671	0.008180281	0.024611643	0	4e+09
4.5011768738979186e-10	0.97947735	-0.033860184	0.007376444	0.025219344	0	4e+09
4.5515945164428734e-10	0.97898996	-0.038652685	0.00643464	0.02567845	0	4e+09
4.600333579941028e-10	0.97847795	-0.042595956	0.005406453	0.025967011	0	4e+09
4.65075517979575e-10	0.97792387	-0.045884512	0.0042370562	0.02608611	0	4e+09
4.701178540914692e-10	0.97736067	-0.048303183	0.002978542	0.026028918	0	4e+09
4.751602594676556e-10	0.9768018	-0.049799718	0.0016514248	0.025865804	0	4e+09
4.800343666904427e-10	0.9762757	-0.050335206	0.00032415258	0.026225137	0	4e+09
4.850745683981339e-10	0.97575253	-0.04992695	-0.001071659	0.026644574	0	4e+09
4.901103537404803e-10	0.97525424	-0.048538454	-0.0024660788	0.026718304	0	4e+09
4.951457962481136e-10	0.97478044	-0.04618313	-0.0038357098	0.026503248	0	4e+09
5.000138203145223e-10	0.974343	-0.043015327	-0.0051132883	0.026031211	0	4e+09
5.050502554979975e-10	0.97390866	-0.03886188	-0.0063635693	0.02529958	0	4e+09
5.100868447167998e-10	0.9734881	-0.033879664	-0.0075183683	0.024560727	0	4e+09
5.151224129478818e-10	0.9730777	-0.028148182	-0.008555823	0.024235778	0	4e+09
5.201565613981544e-10	0.97267485	-0.021760354	-0.009456246	0.023574974	0	4e+09
5.250226409829563e-10	0.9722912	-0.015058313	-0.010180313	0.023516746	0	4e+09
5.300571659312062e-10	0.97190046	-0.007689727	-0.010763762	0.023781411	0	4e+09
5.350922903991122e-10	0.97151834	4.5568106e-07	-0.011167124	0.02399104	0	4e+09
5.40128152370522e-10	0.9711482	0.007883791	-0.011381808	0.02419393	0	4e+09
5.451648350750952e-10	0.9707953	0.015827825	-0.011402608	0.024402458	0	4e+09
5.500345386034109e-10	0.9704765	0.023438817	-0.011236797	0.024560727	0	4e+09
5.550727298127995e-10	0.97017765	0.031111263	-0.010874704	0.02467212	0	4e+09
5.601116584787798e-10	0.96991926	0.038450453	-0.010324039	0.025074743	0	4e+09
5.651513498361303e-10	0.96971196	0.04533097	-0.00959345	0.025473345	0	4e+09
5.700233909213202e-10	0.96957076	0.051434442	-0.008727415	0.02584044	0	4e+09
5.750606226687682e-10	0.969497	0.057072412	-0.007681397	0.02646048	0	4e+09
5.80094628772752e-10	0.96950704	0.061926972	-0.0065004616	0.028093014	0	4e+09
5.851282962166786e-10	0.96960896	0.06591639	-0.005204036	0.029285712	0	4e+09
5.901622438163456e-10	0.9698078	0.06896964	-0.0038139275	0.02996584	0	4e+09
5.950287449837095e-10	0.9700926	0.07097791	-0.0024031957	0.030116653	0	4e+09
6.00063132181629e-10	0.9704789	0.07203986	-0.00089861563	0.030043326	0	4e+09
6.050963384799211e-10	0.97094804	0.072045214	0.0006264979	0.030398393	0	4e+09
6.101261449615937e-10	0.97148496	0.07098838	0.002145942	0.03035129	0	4e+09
6.151546325840236e-10	0.97207034	0.068880886	0.0036350926	0.02995589	0	4e+09
6.200157389731481e-10	0.9726609	0.06587072	0.0050230846	0.029293852	0	4e+09
6.250448915644138e-10	0.973273	0.061793625	0.0063826214	0.028396932	0	4e+09
6.300745494030826e-10	0.9738611	0.056797616	0.007642334	0.027351141	0	4e+09
6.351047324216459e-10	0.9744003	0.050959833	0.008781259	0.026304573	0	4e+09
6.401354748379238e-10	0.9748674	0.044372376	0.009780243	0.02565755	0	4e+09
6.451667705168449e-10	0.9752427	0.037141103	0.010622188	0.025034295	0	4e+09
6.50030803828666e-10	0.9755037	0.029649705	0.011272886	0.024568008	0	4e+09
6.550630687187128e-10	0.9756576	0.021505814	0.011765332	0.024208706	0	4e+09
6.600958242930188e-10	0.9756886	0.013095416	0.012064706	0.023928842	0	4e+09
6.651291013502655e-10	0.97559655	0.004559882	0.012164606	0.023966182	0	4e+09
6.701628802892035e-10	0.975388	-0.003956157	0.012061868	0.024008429	0	4e+09
6.750293224641679e-10	0.97508615	-0.012033315	0.011770104	0.024010912	0	4e+09
6.80064081504054e-10	0.97468615	-0.020089542	0.011272695	0.023951253	0	4e+09
6.850992321291507e-10	0.9742167	-0.027704109	0.010583351	0.023858989	0	4e+09
6.901349048287554e-10	0.973701	-0.034745853	0.009712445	0.024272643	0	4e+09
6.950030900138983e-10	0.9731812	-0.04089358	0.008710793	0.024691442	0	4e+09
7.00039607753577e-10	0.97264594	-0.04646403	0.0075254487	0.025119873	0	4e+09
7.050762184599678e-10	0.9721362	-0.05113567	0.006207635	0.025529444	0	4e+09
7.101093684086682e-10	0.9716744	-0.05482459	0.004780139	0.025921058	0	4e+09
7.151411454749391e-10	0.97127765	-0.05746889	0.0032662447	0.02626602	0	4e+09
7.200053593046382e-10	0.9709694	-0.058988642	0.0017440598	0.026536966	0	4e+09
7.250373904666016e-10	0.9707366	-0.059460133	0.00013435696	0.026742835	0	4e+09
7.30069698974948e-10	0.9705955	-0.058801726	-0.0014841665	0.026869591	0	4e+09
7.35102434917448e-10	0.9705447	-0.057021324	-0.003084145	0.026916139	0	4e+09
7.401353525042302e-10	0.9705779	-0.05414575	-0.004638306	0.026885116	0	4e+09
7.450007141175189e-10	0.9706791	-0.05036726	-0.006072205	0.026780702	0	4e+09
7.500342084445149e-10	0.9708413	-0.045485824	-0.007460102	0.026606511	0	4e+09
7.550678817419628e-10	0.97104406	-0.039693452	-0.008727349	0.026383772	0	4e+09
7.6010183043423e-10	0.9712678	-0.03308415	-0.009852163	0.026134055	0	4e+09
7.651360959361636e-10	0.97149265	-0.025765827	-0.010815117	0.025845055	0	4e+09
7.700028636458078e-10	0.97169214	-0.018130198	-0.011576386	0.02593715	0	4e+09
7.750376590363036e-10	0.97186345	-0.0097773	-0.012175093	0.0260335	0	4e+09
7.800728242467644e-10	0.9719847	-0.0010989115	-0.012571412	0.026017467	0	4e+09
7.851082412322581e-10	0.9720455	0.0077611175	-0.012758248	0.0260083	0	4e+09
7.901439981553674e-10	0.97204024	0.016655963	-0.012732077	0.026056388	0	4e+09
7.950121916072438e-10	0.971972	0.0251484	-0.012504388	0.026065536	0	4e+09
8.000485401262583e-10	0.9718408	0.03368189	-0.012063052	0.026040368	0	4e+09
8.050850644606365e-10	0.9716576	0.04181858	-0.011419578	0.02598078	0	4e+09
8.101218390025146e-10	0.9714368	0.049422864	-0.010584574	0.0260083	0	4e+09
8.151587201762322e-10	0.9711961	0.05636758	-0.009571902	0.02636343	0	4e+09
8.200279635429475e-10	0.97096336	0.062344808	-0.008439845	0.026590826	0	4e+09
8.250651009324581e-10	0.97074264	0.06766568	-0.007129294	0.026700448	0	4e+09
8.30102557142146e-10	0.97056293	0.0720214	-0.005698324	0.026684815	0	4e+09
8.351399295968856e-10	0.9704425	0.075337864	-0.004170715	0.026550442	0	4e+09
8.400096078880283e-10	0.9703969	0.07750246	-0.0026257678	0.026311371	0	4e+09
8.450450024985197e-10	0.9704333	0.078625716	-0.0009833359	0.02597619	0	4e+09
8.500762099125825e-10	0.97055995	0.07859485	0.00067666004	0.02556678	0	4e+09
8.551065396207957e-10	0.9707763	0.07740886	0.002328046	0.02512699	0	4e+09
8.601366588802358e-10	0.97107595	0.07508397	0.0039439388	0.02508425	0	4e+09
8.651669744733775e-10	0.9714467	0.07165455	0.005497904	0.025041439	0	4e+09
8.700295581767181e-10	0.9718563	0.067339174	0.0069170315	0.025005706	0	4e+09
8.750597575579929e-10	0.97231203	0.06190845	0.008275571	0.024962759	0	4e+09
8.800899464098374e-10	0.97277635	0.055580426	0.009500423	0.024917345	0	4e+09
8.851204023379045e-10	0.97322327	0.048456706	0.010571164	0.024859864	0	4e+09
8.901509342718627e-10	0.97362727	0.04065349	0.011469727	0.024785418	0	4e+09
8.950138376769125e-10	0.9739546	0.03258488	0.012160323	0.02470351	0	4e+09
9.000445874729165e-10	0.97420764	0.02382851	0.012678706	0.024691442	0	4e+09
9.050753460767128e-10	0.9743576	0.014800063	0.012988851	0.0248982	0	4e+09
9.101062003073161e-10	0.9743947	0.005650279	0.013085223	0.025100881	0	4e+09
9.151371068057726e-10	0.97431475	-0.003467398	0.012965813	0.02529958	0	4e+09
9.200003749003477e-10	0.97412914	-0.012106781	0.01264673	0.025473345	0	4e+09
9.250315181153819e-10	0.97383434	-0.020718046	0.012110885	0.02565058	0	4e+09
9.3005941969528e-10	0.9734514	-0.028849771	0.01137477	0.025812743	0	4e+09
9.350845685978227e-10	0.97300106	-0.03636809	0.010450459	0.02595553	0	4e+09
9.401092439526944e-10	0.972509	-0.04315229	0.009352638	0.02607697	0	4e+09
9.45133966513695e-10	0.97200286	-0.04909129	0.008099035	0.026177358	0	4e+09
9.501587491267055e-10	0.97151136	-0.05408777	0.0067101023	0.02625013	0	4e+09
9.55016182075057e-10	0.9710761	-0.057945326	0.005260198	0.02629324	0	4e+09
9.600412335503783e-10	0.9706916	-0.0608673	0.003673371	0.026315903	0	4e+09
9.65066440292957e-10	0.9703946	-0.06265651	0.0020241223	0.026309105	0	4e+09
9.70091908367544e-10	0.9701999	-0.063284785	0.00033983088	0.026279634	0	4e+09
9.751175482365503e-10	0.97011614	-0.0627426	-0.0013513897	0.02622059	0	4e+09
9.80143455348694e-10	0.9701441	-0.061039243	-0.0030213168	0.02652798	0	4e+09
9.850020051727533e-10	0.9702718	-0.058314964	-0.0045890696	0.026789604	0	4e+09
9.900283206845206e-10	0.9704954	-0.054426182	-0.006136454	0.026931638	0	4e+09
9.950547684861734e-10	0.9707935	-0.04951097	-0.0075826542	0.02694934	0	4e+09
1.0000814927753113e-09	0.9711424	-0.04364843	-0.008903736	0.026829626	0	4e+09
1.0051084721213054e-09	0.9715159	-0.03693319	-0.010077913	0.026593067	0	4e+09
1.0101355720292179e-09	0.9718864	-0.029474104	-0.011085938	0.026245587	0	4e+09
1.015162861911303e-09	0.97222674	-0.021392144	-0.011911463	0.025803503	0	4e+09
1.020022776449148e-09	0.9725043	-0.013111106	-0.012523485	0.025301937	0	4e+09
1.0250505321971472e-09	0.97271883	-0.004195855	-0.012954407	0.024749314	0	4e+09
1.0300785295639806e-09	0.9728452	0.0049294825	-0.013173021	0.024871849	0	4e+09
1.0351067084290318e-09	0.9728748	0.014114988	-0.013175987	0.024989013	0	4e+09
1.0401351387506725e-09	0.972807	0.023209745	-0.012963416	0.025103254	0	4e+09
1.0451638223816887e-09	0.97264725	0.032064077	-0.012538856	0.02521698	0	4e+09
1.0500251312755884e-09	0.9724177	0.040257696	-0.01193341	0.025323132	0	4e+09
1.0550542472087499e-09	0.97212	0.048219953	-0.011115191	0.0254265	0	4e+09
1.060083559111843e-09	0.9717839	0.055530377	-0.010114924	0.025522439	0	4e+09
1.065113006265906e-09	0.9714346	0.062069003	-0.008948804	0.025608713	0	4e+09
1.0701426963600463e-09	0.97109956	0.067728974	-0.007635719	0.025687734	0	4e+09
1.075004915063736e-09	0.97081405	0.07227799	-0.006246787	0.025754943	0	4e+09
1.0800348477555973e-09	0.97058153	0.07595511	-0.0047090934	0.025810434	0	4e+09
1.0850648886425505e-09	0.97043264	0.07852702	-0.00309377	0.025849666	0	4e+09
1.0900950603051233e-09	0.97038186	0.07995187	-0.0014274014	0.025875023	0	4e+09
1.0951253299850572e-09	0.97043747	0.08020631	0.00026249912	0.025879629	0	4e+09
1.1001556165440075e-09	0.9706003	0.07928594	0.0019479753	0.025868108	0	4e+09
1.1050184456878217e-09	0.9708533	0.07729295	0.0035469425	0.025835827	0	4e+09
1.110049031802515e-09	0.9712015	0.074122	0.005143077	0.02577808	0	4e+09
1.1150795878573347e-09	0.97161806	0.06987367	0.0066542667	0.025701655	0	4e+09
1.1201103910990046e-09	0.97207904	0.06461638	0.008055834	0.025604056	0	4e+09
1.1251412979000158e-09	0.97255677	0.05843549	0.009324901	0.025482703	0	4e+09
1.130004612680623e-09	0.973007	0.0516772	0.010406394	0.025351364	0	4e+09
1.1350357202070175e-09	0.9734325	0.043986566	0.011357427	0.025205156	0	4e+09
1.1400668259810106e-09	0.97379065	0.035709735	0.0121229	0.025043817	0	4e+09
1.1450978906378437e-09	0.97405845	0.026982868	0.012690747	0.024879038	0	4e+09
1.1501289093657673e-09	0.97421795	0.0179497	0.01305214	0.02475654	0	4e+09
1.1551600331792392e-09	0.9742578	0.008758806	0.013201561	0.024931695	0	4e+09
1.1600234823564042e-09	0.97417885	-0.00013324291	0.013142452	0.025086626	0	4e+09
1.1650547253151536e-09	0.9739787	-0.009192699	0.012871866	0.025250053	0	4e+09
1.1700860243139056e-09	0.97366846	-0.017963614	0.012392722	0.025407735	0	4e+09
1.1751174458554649e-09	0.973265	-0.0263028	0.011712743	0.025555117	0	4e+09
1.18014894190126e-09	0.9727912	-0.03407458	0.010842851	0.025699336	0	4e+09
1.1850128617119975e-09	0.9722916	-0.040929873	0.0098345075	0.025821978	0	4e+09
1.1900445381858708e-09	0.9717605	-0.04723056	0.008634495	0.025939448	0	4e+09
1.1950761349167023e-09	0.97124535	-0.052627582	0.0072941184	0.026042657	0	4e+09
1.2001071043010745e-09	0.97077525	-0.05703527	0.0058352672	0.02612493	0	4e+09
1.2051376815627674e-09	0.970377	-0.060385223	0.004281642	0.026188742	0	4e+09
1.210000472581419e-09	0.9700811	-0.062569596	0.0027134907	0.02622741	0	4e+09
1.2150310130364645e-09	0.96988297	-0.063705735	0.0010484657	0.026245587	0	4e+09
1.2200616923964178e-09	0.96980435	-0.063683026	-0.0006330574	0.026370212	0	4e+09
1.2250923344327707e-09	0.96984714	-0.06250311	-0.002303371	0.02652798	0	4e+09
1.2301231110976435e-09	0.9700063	-0.060185675	-0.0039350786	0.026581855	0	4e+09
1.2351538891130953e-09	0.9702692	-0.05676833	-0.0055013695	0.026523484	0	4e+09
1.240016866351774e-09	0.9706043	-0.052470945	-0.006929154	0.026356647	0	4e+09
1.2450474027891194e-09	0.9710119	-0.04706643	-0.008293523	0.02608611	0	4e+09
1.2500780540628703e-09	0.9714543	-0.04077219	-0.009521577	0.02572252	0	4e+09
1.2551087531380313e-09	0.9719033	-0.033689246	-0.010593535	0.025360769	0	4e+09
1.2601394569692566e-09	0.9723301	-0.025931658	-0.011492261	0.025145963	0	4e+09
1.2650025776815252e-09	0.9726969	-0.017908912	-0.012182966	0.024929306	0	4e+09
1.270033506925672e-09	0.973007	-0.009198492	-0.012702364	0.024705922	0	4e+09
1.2750644749436606e-09	0.9732293	-0.00021030825	-0.013015385	0.024657618	0	4e+09
1.2800954717768156e-09	0.9733523	0.008909135	-0.013117313	0.024787823	0	4e+09
1.2851263201911362e-09	0.9733718	0.018010672	-0.013006826	0.024922129	0	4e+09
1.2901571823090987e-09	0.9732905	0.026946006	-0.012686009	0.025050959	0	4e+09
1.2950204245819858e-09	0.973125	0.03528857	-0.012181035	0.025174392	0	4e+09
1.3000514182499127e-09	0.9728784	0.04347703	-0.011465506	0.02530665	0	4e+09
1.3050824673544624e-09	0.9725756	0.051084846	-0.010565229	0.025431186	0	4e+09
1.3101136253289144e-09	0.97224015	0.057989113	-0.009494932	0.025552785	0	4e+09
1.3151448367280672e-09	0.97189754	0.064078696	-0.008272109	0.025669163	0	4e+09
1.3200083728041469e-09	0.9715838	0.06909919	-0.0069637946	0.025775766	0	4e+09
1.325039701803898e-09	0.9713006	0.07331666	-0.0055011734	0.025872717	0	4e+09
1.3300709053742233e-09	0.97108024	0.07647564	-0.003951106	0.025962418	0	4e+09
1.3351022415969833e-09	0.970939	0.078526966	-0.002338666	0.0260335	0	4e+09
1.3401335535209362e-09	0.9708875	0.07943894	-0.00069000723	0.026083827	0	4e+09
1.3451650402739457e-09	0.9709304	0.07919816	0.00096831477	0.026111236	0	4e+09
1.350028780438349e-09	0.97105914	0.077874005	0.0025553838	0.026111236	0	4e+09
1.355060343932949e-09	0.9712744	0.07539712	0.004155077	0.026083827	0	4e+09
1.3600919192220328e-09	0.9715588	0.07183431	0.0056866244	0.026022047	0	4e+09
1.3651236151242924e-09	0.9718928	0.06724284	0.007125633	0.025930254	0	4e+09
1.3701553965624898e-09	0.9722534	0.061696507	0.008449199	0.025805814	0	4e+09
1.3750194645697543e-09	0.9726036	0.05551118	0.009599128	0.025662195	0	4e+09
1.3800511716284128e-09	0.97294205	0.04836059	0.010636358	0.025482703	0	4e+09
1.385082890451072e-09	0.97323203	0.04055932	0.011502432	0.025283083	0	4e+09
1.3901146767557358e-09	0.97345203	0.032233365	0.01218358	0.025069987	0	4e+09
1.3951465491572661e-09	0.973584	0.023517517	0.0126689095	0.024845472	0	4e+09
1.4000106974397906e-09	0.9736167	0.01485457	0.012944522	0.024809457	0	4e+09
1.4050426591325644e-09	0.9735469	0.005788414	0.013024854	0.024962759	0	4e+09
1.4100746247703553e-09	0.9733724	-0.0032382961	0.0128954835	0.025115125	0	4e+09
1.4151065879307593e-09	0.97310126	-0.012079138	0.012558276	0.025259495	0	4e+09
1.4201384572154522e-09	0.9727476	-0.020590872	0.012018455	0.025396	0	4e+09
1.425002628331009e-09	0.9723462	-0.028377099	0.011312002	0.02551777	0	4e+09
1.43003451806848e-09	0.97189313	-0.03584887	0.010401569	0.025634306	0	4e+09
1.435066374051809e-09	0.97142833	-0.042609747	0.009323031	0.025736421	0	4e+09
1.4400982900812404e-09	0.97098047	-0.0485524	0.008093912	0.025824288	0	4e+09
1.4451301794831525e-09	0.9705774	-0.05358288	0.006734336	0.025902653	0	4e+09
1.4501622272914468e-09	0.9702448	-0.057622492	0.0052665705	0.025962418	0	4e+09
1.4550264876603709e-09	0.9700104	-0.060526215	0.0037676361	0.0260083	0	4e+09
1.4600583361312408e-09	0.9698736	-0.062449373	0.0021590006	0.0260335	0	4e+09
1.465090155788969e-09	0.9698538	-0.063244954	0.0005174744	0.026049523	0	4e+09
1.4701221705632008e-09	0.9699537	-0.062901594	-0.001130131	0.026040368	0	4e+09
1.475154168922168e-09	0.9701686	-0.061425652	-0.0027568843	0.026012883	0	4e+09
1.4800185025590912e-09	0.97047466	-0.05894489	-0.0042848215	0.025962418	0	4e+09
1.4850505116851294e-09	0.9708758	-0.055328403	-0.0057945205	0.025895746	0	4e+09
1.4900825723563255e-09	0.9713398	-0.0507012	-0.007208255	0.025801193	0	4e+09
1.495114535322625e-09	0.9718402	-0.045137398	-0.008503541	0.025683094	0	4e+09
1.5001465319469767e-09	0.97234833	-0.038725886	-0.009659998	0.025545785	0	4e+09
1.5050107988928918e-09	0.97281903	-0.031818904	-0.010628901	0.025391307	0	4e+09
1.5100428020965717e-09	0.973258	-0.024051862	-0.011461916	0.02521698	0	4e+09
1.515074779846775e-09	0.9736242	-0.015776446	-0.012110059	0.025027152	0	4e+09
1.520106788895877e-09	0.9738972	-0.0071264287	-0.0125633925	0.024831071	0	4e+09
1.5251389104086126e-09	0.9740626	0.0017581228	-0.012815018	0.02481186	0	4e+09
1.5300032712216798e-09	0.97411335	0.010433689	-0.012862957	0.024931695	0	4e+09
1.5350353559851357e-09	0.9740521	0.019356895	-0.012709925	0.02504858	0	4e+09
1.540067505994127e-09	0.97388077	0.028084679	-0.012353378	0.02516018	0	4e+09
1.5450996404626678e-09	0.9736122	0.03647552	-0.0117990505	0.02527129	0	4e+09
1.5501316789192955e-09	0.97326463	0.044393774	-0.011055819	0.025381915	0	4e+09
1.5551636914628308e-09	0.9728611	0.051712167	-0.010135544	0.025496734	0	4e+09
1.560028070063647e-09	0.9724418	0.05810632	-0.00909143	0.025597071	0	4e+09
1.5650601004422895e-09	0.9720045	0.063914515	-0.007868336	0.025706293	0	4e+09
1.570092097143261e-09	0.97158986	0.06881187	-0.006519264	0.025805814	0	4e+09
1.5751241406700044e-09	0.97122306	0.072721444	-0.005065894	0.02589805	0	4e+09
1.5801561272518078e-09	0.97092533	0.07558216	-0.0035316707	0.02597619	0	4e+09
1.5850202542415022e-09	0.9707188	0.07730884	-0.0019950054	0.02603579	0	4e+09
1.5900521589648627e-09	0.9705999	0.07799423	-0.0003747983	0.026079256	0	4e+09
1.5950837920379222e-09	0.97058135	0.07755063	0.0012505435	0.026088396	0	4e+09
1.600115375689669e-09	0.9706614	0.07598599	0.0028549202	0.02607011	0	4e+09
1.6051466855495596e-09	0.9708312	0.07332593	0.004412475	0.026026629	0	4e+09
1.6100101013156216e-09	0.9710672	0.06975334	0.0058501433	0.025946341	0	4e+09
1.6150409458717927e-09	0.9713673	0.06507938	0.0072439183	0.025835827	0	4e+09
1.6200716181510689e-09	0.97170174	0.059484486	0.008520691	0.025692375	0	4e+09
1.6251022670694266e-09	0.9720465	0.053057794	0.009660167	0.025524775	0	4e+09
1.6301329339723344e-09	0.9723763	0.045902	0.010644232	0.025332548	0	4e+09
1.6351635021871103e-09	0.9726677	0.03813193	0.0114572365	0.025122246	0	4e+09
1.6400263335866307e-09	0.97289324	0.03015418	0.012068397	0.024907775	0	4e+09
1.6450570377752586e-09	0.97305256	0.02154733	0.012510124	0.024679366	0	4e+09
1.6500878372484752e-09	0.97312516	0.012717901	0.012751171	0.02473727	0	4e+09
1.6551186043234037e-09	0.97310555	0.0038086108	0.0127877	0.024869453	0	4e+09
1.6601494915973121e-09	0.97299486	-0.005037014	0.012619124	0.024996167	0	4e+09
1.6650127500052012e-09	0.9728081	-0.013393087	0.012263722	0.025124617	0	4e+09
1.6700437256054655e-09	0.97254527	-0.021700526	0.011702734	0.025257133	0	4e+09
1.6750748108862306e-09	0.9722294	-0.029533854	0.010954107	0.025384264	0	4e+09
1.6801060420348815e-09	0.97188246	-0.03676789	0.010029944	0.025510758	0	4e+09
1.6851373173780501e-09	0.97152895	-0.04328737	0.008945256	0.02563198	0	4e+09
1.690000895807864e-09	0.97120416	-0.048813187	0.0077607054	0.025743369	0	4e+09
1.695032250902295e-09	0.97090983	-0.053639032	0.006413986	0.025851972	0	4e+09
1.7000637564123392e-09	0.97067934	-0.057484813	0.0049655596	0.025941746	0	4e+09
1.7050954342404667e-09	0.97053015	-0.06029074	0.0034389799	0.026015176	0	4e+09
1.7101271094131463e-09	0.97047544	-0.062013537	0.0018590846	0.026072396	0	4e+09
1.7151589076859629e-09	0.970522	-0.062627085	0.00025141274	0.02609982	0	4e+09
1.72002306371254e-09	0.9706635	-0.0621574	-0.0013046898	0.02610667	0	4e+09
1.7250549082497037e-09	0.97090375	-0.060580317	-0.002891364	0.026081542	0	4e+09
1.7300868018938412e-09	0.9712273	-0.05791887	-0.00442952	0.0260335	0	4e+09
1.7351187580131467e-09	0.97161645	-0.054215528	-0.00589471	0.025957827	0	4e+09
1.7401508002165713e-09	0.9720489	-0.049529176	-0.007263761	0.025851972	0	4e+09
1.7450151173123e-09	0.97248465	-0.044134695	-0.0084755	0.025724838	0	4e+09
1.7500472414555224e-09	0.9729278	-0.03774645	-0.009594398	0.02556911	0	4e+09
1.7550794386818671e-09	0.97333694	-0.030637817	-0.010559109	0.025400696	0	4e+09
1.7601116609586527e-09	0.97368723	-0.022922764	-0.011354576	0.025209885	0	4e+09
1.7651440050158568e-09	0.9739575	-0.014725118	-0.01196841	0.025015239	0	4e+09
1.7700086563839835e-09	0.97412634	-0.0064661894	-0.012380089	0.024823869	0	4e+09
1.7750410520474362e-09	0.9741947	0.0022894053	-0.012611504	0.024689028	0	4e+09
1.780073401791353e-09	0.9741503	0.011120444	-0.012641572	0.024814261	0	4e+09
1.785105772047634e-09	0.9739946	0.019884309	-0.0124697555	0.024948426	0	4e+09
1.7901381758898487e-09	0.97373587	0.028439479	-0.012098671	0.02508425	0	4e+09
1.7950028688409072e-09	0.9734016	0.036381412	-0.01155593	0.025219344	0	4e+09
1.800035438472262e-09	0.97298795	0.044129517	-0.010812639	0.02537017	0	4e+09
1.8050679665402045e-09	0.9725288	0.05127905	-0.0098960865	0.02550842	0	4e+09
1.8101004172581258e-09	0.9720506	0.05771596	-0.0088208495	0.025645928	0	4e+09
1.8151328823462723e-09	0.97158056	0.063338235	-0.0076040947	0.025768828	0	4e+09
1.8201654558488423e-09	0.97114575	0.06805725	-0.006265327	0.025875023	0	4e+09
1.8250302790055147e-09	0.970782	0.071690544	-0.0048754895	0.025960121	0	4e+09
1.8300627491744291e-09	0.97048414	0.07443172	-0.00336135	0.026024338	0	4e+09
1.8350950932099253e-09	0.9702818	0.076096535	-0.0017937713	0.026056388	0	4e+09
1.8401267496976143e-09	0.9701848	0.07665969	-0.00019828895	0.026060963	0	4e+09
1.8451569735811453e-09	0.9701963	0.0761137	0.001399083	0.026038079	0	4e+09
1.8500191872925832e-09	0.9703075	0.07454059	0.0029211345	0.02598078	0	4e+09
1.8550490091614434e-09	0.97051656	0.071857244	0.004448331	0.02590035	0	4e+09
1.8600786470606785e-09	0.9708062	0.06814242	0.0059031774	0.025782702	0	4e+09
1.8651082055789468e-09	0.9711562	0.063454926	0.007262504	0.025652902	0	4e+09
1.870137708172634e-09	0.97154343	0.05786905	0.008504725	0.025494397	0	4e+09
1.875167131093114e-09	0.97194237	0.05147345	0.009610181	0.025325486	0	4e+09
1.8800289018774872e-09	0.9723154	0.044616815	0.010532398	0.025157811	0	4e+09
1.885058245185719e-09	0.9726643	0.036936395	0.0113203805	0.02497947	0	4e+09
1.8900875352466482e-09	0.9729548	0.028780203	0.011927326	0.02479744	0	4e+09
1.8951168290710866e-09	0.97316957	0.020278914	0.012343748	0.024616487	0	4e+09
1.900146110393722e-09	0.9732962	0.011569105	0.012563143	0.024647947	0	4e+09
1.9050076731022077e-09	0.97332954	0.003083167	0.012584716	0.024809457	0	4e+09
1.9100367635503636e-09	0.97327155	-0.005626784	0.012409671	0.02497947	0	4e+09
1.9150658686643995e-09	0.97312593	-0.014128774	0.012036723	0.025148332	0	4e+09
1.9200949901326614e-09	0.9729046	-0.022286389	0.011471822	0.025320778	0	4e+09
1.9251241528002055e-09	0.9726248	-0.029969105	0.01072398	0.025480364	0	4e+09
1.930153289932774e-09	0.97230726	-0.0370543	0.009805163	0.025634306	0	4e+09