# t (s)	mx ()	my ()	mz ()	MaxAngle (rad)	phi (degree)	f_RF (GHz)
0	1	0	0	0	0	3e+09
5.1536640061836395e-12	0.99999744	7.041065e-06	-2.211967e-05	0.02622741	0	3e+09
1.0581896978586968e-11	0.99998844	5.2722433e-05	-9.121449e-05	0.030644495	0	3e+09
1.5135503785674548e-11	0.9999719	0.00014603275	-0.00018255379	0.035921313	0	3e+09
2.109629867159974e-11	0.999928	0.00037642414	-0.00034290683	0.03919297	0	3e+09
2.601142416984759e-11	0.99986297	0.00068198855	-0.00050477753	0.045776296	0	3e+09
3.0960994663455327e-11	0.99976116	0.001113304	-0.00068937533	0.051995773	0	3e+09
3.60314121734094e-11	0.99960923	0.0016972087	-0.00089498365	0.057744052	0	3e+09
4.1251168516504766e-11	0.999392	0.0024581193	-0.0011171793	0.06306494	0	3e+09
4.528033596833664e-11	0.999175	0.0031593894	-0.0012912648	0.067435384	0	3e+09
5.0818664329999366e-11	0.998798	0.004284677	-0.0015270341	0.07466691	0	3e+09
5.5110204668355523e-11	0.99843735	0.0052808956	-0.0017014961	0.07713665	0	3e+09
6.100486509153505e-11	0.9978377	0.006813084	-0.0019206888	0.07800963	0	3e+09
6.543185759804072e-11	0.99730533	0.008074853	-0.0020637407	0.07926911	0	3e+09
7.127848299557962e-11	0.9964971	0.009861332	-0.0022160576	0.08199389	0	3e+09
7.571649729216985e-11	0.9958109	0.01128689	-0.002298666	0.08339166	0	3e+09
8.028607398443551e-11	0.99505	0.012794732	-0.0023498165	0.0824149	0	3e+09
8.654180865833622e-11	0.9939478	0.014882371	-0.0023584394	0.07993623	0	3e+09
9.126920144270949e-11	0.9930976	0.016442554	-0.0023146956	0.077376835	0	3e+09
9.610718182531939e-11	0.9922432	0.017990379	-0.0022234698	0.07533985	0	3e+09
1.0103810603272619e-10	0.9914201	0.01948482	-0.0020817483	0.07497231	0	3e+09
1.0591836538757465e-10	0.99068385	0.02084906	-0.0018937199	0.07542216	0	3e+09
1.1084566570947853e-10	0.9900473	0.022078581	-0.0016574082	0.07535806	0	3e+09
1.1572919256656424e-10	0.9895453	0.023120254	-0.0013797972	0.07480422	0	3e+09
1.2053122664975512e-10	0.98919284	0.023945281	-0.0010681114	0.073839344	0	3e+09
1.2530230948766648e-10	0.9889907	0.024544748	-0.00072446343	0.073743135	0	3e+09
1.3004214852673176e-10	0.98893803	0.024901474	-0.00035408852	0.07364437	0	3e+09
1.3633822325782577e-10	0.98908865	0.024976274	0.00017385268	0.07301468	0	3e+09
1.4099983884530592e-10	0.9893494	0.024720248	0.0005842391	0.07226155	0	3e+09
1.456146722203167e-10	0.98971725	0.024194991	0.0010006943	0.071722925	0	3e+09
1.5021410141602584e-10	0.99017566	0.023396803	0.0014201679	0.071076244	0	3e+09
1.5635298982216748e-10	0.9908981	0.021901675	0.0019768705	0.07008823	0	3e+09
1.6098307146010062e-10	0.9915008	0.020452604	0.0023866813	0.06926204	0	3e+09
1.6561469490126908e-10	0.99213153	0.018734545	0.0027814026	0.06916206	0	3e+09
1.7023479614109193e-10	0.99276954	0.016764771	0.0031542084	0.06909476	0	3e+09
1.7637906694981738e-10	0.993603	0.013776177	0.0036081234	0.06883267	0	3e+09
1.8098367929469515e-10	0.99419695	0.0112857865	0.003910283	0.068530425	0	3e+09
1.8558424028814217e-10	0.9947509	0.008608979	0.0041744076	0.068176985	0	3e+09
1.901823280408711e-10	0.99525577	0.005771867	0.004396445	0.0677962	0	3e+09
1.9631065659343083e-10	0.9958406	0.0017902737	0.0046208766	0.06724227	0	3e+09
2.009005268484616e-10	0.9962078	-0.0013002413	0.0047315443	0.06679369	0	3e+09
2.0548667815152324e-10	0.99651164	-0.0044434103	0.0047904034	0.06633488	0	3e+09
2.1007034828456494e-10	0.9967529	-0.007604731	0.0047959574	0.06588194	0	3e+09
2.161630613618464e-10	0.9969808	-0.011775585	0.004719399	0.06529446	0	3e+09
2.2070825543770357e-10	0.9970866	-0.014817548	0.0045997496	0.06485357	0	3e+09
2.2524222323854644e-10	0.9971422	-0.017753828	0.004427854	0.06440505	0	3e+09
2.3128016338714674e-10	0.99714875	-0.021453202	0.004119892	0.06382361	0	3e+09
2.3580286209422193e-10	0.9971105	-0.024024326	0.0038327847	0.064393	0	3e+09
2.403288149646124e-10	0.99704146	-0.026391901	0.0035001482	0.06453549	0	3e+09
2.463643325353557e-10	0.99691105	-0.029180795	0.0029919283	0.06459092	0	3e+09
2.5088665376272055e-10	0.9967908	-0.030961653	0.0025678487	0.06478363	0	3e+09
2.5540785518220453e-10	0.99665564	-0.03245282	0.0021117576	0.06570425	0	3e+09
2.614378061626792e-10	0.99645764	-0.033959266	0.0014619671	0.065917246	0	3e+09
2.659585590777068e-10	0.9962983	-0.034707602	0.0009504914	0.06581854	0	3e+09
2.704784371302462e-10	0.99613124	-0.035116915	0.00042439374	0.06536567	0	3e+09
2.7650569352410233e-10	0.9958962	-0.035123706	-0.00029020334	0.065613404	0	3e+09
2.810273298974651e-10	0.99571013	-0.0347208	-0.00082853745	0.06552334	0	3e+09
2.8555074861116426e-10	0.99551433	-0.033969387	-0.001362489	0.06533007	0	3e+09
2.9007647007273336e-10	0.9953074	-0.032874577	-0.0018862665	0.0685313	0	3e+09
2.9610964110076887e-10	0.9950124	-0.030898562	-0.0025583257	0.07284043	0	3e+09
3.006344957466331e-10	0.99477524	-0.029047212	-0.0030354944	0.07439074	0	3e+09
3.0516033431718505e-10	0.99452394	-0.02689859	-0.0034837744	0.07431852	0	3e+09
3.1119526073376555e-10	0.99416786	-0.023609312	-0.0040277243	0.0719513	0	3e+09
3.1572140204631166e-10	0.9938869	-0.020856846	-0.004389306	0.0687659	0	3e+09
3.202469726845606e-10	0.9935964	-0.017891334	-0.004706447	0.064626	0	3e+09
3.2627878332173444e-10	0.99320096	-0.013660504	-0.0050538965	0.06550422	0	3e+09
3.3080332208806307e-10	0.9929038	-0.010320888	-0.005254211	0.0656434	0	3e+09
3.353260098459981e-10	0.9926121	-0.0068787327	-0.005400212	0.06534924	0	3e+09
3.413402667751184e-10	0.9922424	-0.002201535	-0.005507785	0.065214016	0	3e+09
3.4583434989021956e-10	0.99198735	0.0013218756	-0.0055227205	0.065416746	0	3e+09
3.503169298948562e-10	0.99175763	0.00482155	-0.005481942	0.06557612	0	3e+09
3.562821735160407e-10	0.9914993	0.009397021	-0.005343021	0.065710604	0	3e+09
3.6074746240293727e-10	0.99134743	0.012718319	-0.0051779225	0.06576323	0	3e+09
3.6520860519128553e-10	0.9912354	0.015913192	-0.0049633603	0.06592267	0	3e+09
3.7115143060125124e-10	0.99115247	0.019927371	-0.004605782	0.06611782	0	3e+09
3.7560614097855697e-10	0.991142	0.022720419	-0.004288692	0.0662512	0	3e+09
3.8005953413472433e-10	0.99117583	0.025300626	-0.0039342525	0.06638702	0	3e+09
3.859934892685151e-10	0.9912882	0.028372355	-0.0034116413	0.06656199	0	3e+09
3.904438941623599e-10	0.9914201	0.030377654	-0.0029882183	0.06669628	0	3e+09
3.963782196648712e-10	0.9916527	0.03262504	-0.0023912615	0.06687937	0	3e+09
4.0082776340319873e-10	0.99186444	0.03397542	-0.0019261172	0.067041494	0	3e+09
4.0527800662714355e-10	0.9921023	0.03503004	-0.0014516248	0.067195244	0	3e+09
4.112128473553673e-10	0.992451	0.035968088	-0.0008132614	0.06739203	0	3e+09
4.156635899406455e-10	0.9927284	0.036318816	-0.00033679805	0.067532614	0	3e+09
4.2011439652153333e-10	0.99301314	0.03636961	0.00013243179	0.06766145	0	3e+09
4.260481593708856e-10	0.99339426	0.03598061	0.00073901063	0.067828745	0	3e+09
4.3049944395496315e-10	0.9936744	0.035357412	0.0011744132	0.06794473	0	3e+09
4.364320064375488e-10	0.9940307	0.034107514	0.0017214089	0.06808943	0	3e+09
4.408829025594059e-10	0.99427986	0.032874044	0.002102499	0.06819273	0	3e+09
4.453329588288995e-10	0.9945094	0.031406038	0.0024551908	0.068288885	0	3e+09
4.512671466824031e-10	0.99478024	0.029115966	0.0028772529	0.06840322	0	3e+09
4.5571671757623877e-10	0.9949543	0.027176253	0.0031549907	0.0684895	0	3e+09
4.6016643223563396e-10	0.9951016	0.025070064	0.0033978587	0.068566106	0	3e+09
4.661010669054778e-10	0.99525535	0.02204173	0.0036657196	0.06865478	0	3e+09
4.70551367313528e-10	0.99533814	0.019636925	0.0038237874	0.06871905	0	3e+09
4.750018263070989e-10	0.99539334	0.017143777	0.003944999	0.06877632	0	3e+09
4.809370551709825e-10	0.99542487	0.0137226945	0.004049761	0.06884133	0	3e+09
4.853882976462618e-10	0.99541795	0.011115306	0.0040865033	0.06888898	0	3e+09
4.913223056968875e-10	0.99536973	0.0076271878	0.0040816674	0.06893745	0	3e+09
4.957734212941645e-10	0.99530566	0.005029983	0.0040394217	0.06897119	0	3e+09
5.002246391268568e-10	0.99521846	0.0024723448	0.0039658668	0.06900059	0	3e+09
5.061578384540532e-10	0.9950687	-0.00084159663	0.0038223614	0.06902911	0	3e+09
5.106079859171017e-10	0.9949325	-0.0032323864	0.0036832858	0.06904639	0	3e+09
5.150578808058931e-10	0.99477684	-0.005523442	0.0035197085	0.069060214	0	3e+09
5.209727582271914e-10	0.99454206	-0.008389216	0.003268306	0.06907058	0	3e+09
5.253930029833093e-10	0.99434763	-0.010380354	0.003058156	0.069075756	0	3e+09
5.312715643750184e-10	0.99406654	-0.012808164	0.0027536487	0.06907835	0	3e+09
5.356706461529215e-10	0.9938419	-0.014448771	0.0025101432	0.069075756	0	3e+09
5.400642441077462e-10	0.99360746	-0.015928667	0.0022561664	0.06906972	0	3e+09
5.459166473776768e-10	0.99328405	-0.017644156	0.0019050718	0.06906194	0	3e+09
5.503029514228773e-10	0.9930368	-0.018733308	0.0016352219	0.069050714	0	3e+09
5.561482081982675e-10	0.9927066	-0.019918758	0.0012707349	0.06909648	0	3e+09
5.605328911585557e-10	0.9924628	-0.020607723	0.000996304	0.06914395	0	3e+09
5.663816698223267e-10	0.9921492	-0.021261144	0.000632542	0.069206044	0	3e+09
5.707688497559689e-10	0.9919274	-0.02155488	0.000363751	0.06924998	0	3e+09
5.751581570312006e-10	0.9917209	-0.021684026	0.000100180005	0.06929562	0	3e+09
5.810143031205548e-10	0.9914751	-0.021607453	-0.0002405067	0.06934983	0	3e+09
5.854103280001947e-10	0.9913165	-0.021369942	-0.00048623706	0.06938767	0	3e+09
5.912761884962317e-10	0.9911446	-0.020824235	-0.0007984876	0.06943751	0	3e+09
5.956807812779068e-10	0.99104786	-0.02025135	-0.001019892	0.06947273	0	3e+09
6.000894842347983e-10	0.99098015	-0.019545916	-0.001229364	0.06950449	0	3e+09
6.059759449637213e-10	0.990936	-0.01841142	-0.001489015	0.069542244	0	3e+09
6.103948624295572e-10	0.9909375	-0.01742533	-0.0016682831	0.069568835	0	3e+09
6.162933685454075e-10	0.99098366	-0.015944866	-0.001886132	0.06959883	0	3e+09
6.207224595407438e-10	0.9910493	-0.014720451	-0.002033452	0.06961769	0	3e+09
6.251556720292718e-10	0.99113905	-0.013407192	-0.0021669776	0.06963397	0	3e+09
6.310710438351931e-10	0.9912911	-0.011532378	-0.00232371	0.06964853	0	3e+09
6.355125598207709e-10	0.991425	-0.010043157	-0.0024256126	0.06965795	0	3e+09
6.414399399194119e-10	0.9916232	-0.007962004	-0.002541147	0.06966395	0	3e+09
6.458874681647168e-10	0.99178153	-0.006340245	-0.0026129615	0.06966395	0	3e+09
6.503368256291804e-10	0.9919437	-0.0046747364	-0.002672478	0.069660515	0	3e+09
6.562725548154538e-10	0.9921596	-0.0023987922	-0.0027333412	0.06965196	0	3e+09
6.607242310409274e-10	0.9923166	-0.0006609308	-0.0027655412	0.06964254	0	3e+09
6.65175954733614e-10	0.99246585	0.0010953991	-0.0027865567	0.06962712	0	3e+09
6.71110090280206e-10	0.992648	0.0034529173	-0.0027975966	0.06960484	0	3e+09
6.755603885081045e-10	0.9927691	0.0052240253	-0.0027933721	0.069584265	0	3e+09
6.800092480385467e-10	0.992875	0.0069894213	-0.0027785476	0.069561966	0	3e+09
6.859368581556115e-10	0.9929902	0.0093215685	-0.0027423596	0.06952852	0	3e+09
6.90380913852531e-10	0.99305636	0.011045952	-0.0027028492	0.06949848	0	3e+09
6.963032089144041e-10	0.9931171	0.013298485	-0.0026334946	0.06945727	0	3e+09
7.007408733215451e-10	0.9931421	0.014943124	-0.0025688075	0.06942463	0	3e+09
7.051754872091275e-10	0.9931501	0.016541665	-0.0024930642	0.069390245	0	3e+09
7.110846664410354e-10	0.9931357	0.018589307	-0.0023745298	0.0693421	0	3e+09
7.155118471685383e-10	0.9931071	0.020052133	-0.0022722797	0.069361016	0	3e+09
7.214080874851336e-10	0.9930472	0.021891378	-0.0021178848	0.069416896	0	3e+09
7.258268724326192e-10	0.9929871	0.023178404	-0.0019883772	0.069460705	0	3e+09
7.30241846670675e-10	0.99291545	0.024377782	-0.0018471084	0.06950106	0	3e+09
7.361217585794675e-10	0.9928031	0.025827868	-0.0016405982	0.069556825	0	3e+09
7.405274886192621e-10	0.9927076	0.026794579	-0.0014722943	0.06959712	0	3e+09
7.463972310099333e-10	0.99256676	0.027909383	-0.0012305146	0.06965025	0	3e+09
7.507938843604598e-10	0.9924523	0.028605893	-0.0010368148	0.06968792	0	3e+09
7.551867390827232e-10	0.9923311	0.029176053	-0.00083312584	0.06972387	0	3e+09
7.610377495526973e-10	0.99216	0.029729867	-0.0005473064	0.06976748	0	3e+09
7.654225361078378e-10	0.99202573	0.029983884	-0.00032338037	0.06979997	0	3e+09
7.712632612098357e-10	0.99184054	0.030099032	-1.4149445e-05	0.069836706	0	3e+09
7.756412574342806e-10	0.991698	0.030013146	0.00022426195	0.06986147	0	3e+09
7.800167281344605e-10	0.99155354	0.029776586	0.00046668385	0.06988281	0	3e+09
7.858488962803442e-10	0.9913595	0.029223718	0.00079363055	0.06990757	0	3e+09
7.902199147843504e-10	0.99121433	0.028630324	0.0010393882	0.06992377	0	3e+09
7.960451257184853e-10	0.9910241	0.027601874	0.0013645078	0.06993742	0	3e+09
8.004135508946232e-10	0.9908852	0.026654696	0.0016041049	0.069945954	0	3e+09
8.062367747124778e-10	0.9907077	0.025163503	0.0019141939	0.06995107	0	3e+09
8.106041763487686e-10	0.9905819	0.023879537	0.002137219	0.06995192	0	3e+09
8.16428793093759e-10	0.9904265	0.02195759	0.0024181409	0.06994766	0	3e+09
8.207966322132539e-10	0.9903207	0.020368706	0.0026138546	0.069940835	0	3e+09
8.251650248528812e-10	0.99022496	0.018662697	0.002794635	0.06992974	0	3e+09
8.309893724346936e-10	0.9901151	0.016223514	0.003009209	0.069910124	0	3e+09
8.353598020289452e-10	0.99004656	0.014284264	0.0031480994	0.069893904	0	3e+09
8.411892255578445e-10	0.9899745	0.011575918	0.003300789	0.06986659	0	3e+09
8.455624575655797e-10	0.9899353	0.0094703855	0.0033890398	0.069841824	0	3e+09
8.513963745686243e-10	0.98990214	0.0065909075	0.0034693184	0.06980765	0	3e+09
8.557728822406239e-10	0.9898913	0.0043977303	0.0035001193	0.06977859	0	3e+09
8.60151016168363e-10	0.9898919	0.0021932663	0.0035048106	0.06974953	0	3e+09
8.659897591453379e-10	0.9899088	-0.0007342344	0.0034694783	0.06970503	0	3e+09
8.703719368735948e-10	0.9899326	-0.0029001585	0.003411356	0.0696708	0	3e+09
8.762185075895681e-10	0.98997676	-0.005715614	0.0032915915	0.06962283	0	3e+09
8.806048452883189e-10	0.99001765	-0.007750053	0.003170404	0.06958512	0	3e+09
8.864565356065816e-10	0.9900807	-0.010328345	0.0029679711	0.069537096	0	3e+09
8.908470528041033e-10	0.99013305	-0.0121397795	0.0027865877	0.06949848	0	3e+09
8.95239385567431e-10	0.9901885	-0.0138289975	0.0025810532	0.069462426	0	3e+09
9.010972614691376e-10	0.9902655	-0.015864955	0.0022718483	0.06941174	0	3e+09
9.054936487155926e-10	0.9903248	-0.017212307	0.002015539	0.069415174	0	3e+09
9.113589945192994e-10	0.9904044	-0.018744977	0.0016447577	0.06947359	0	3e+09
9.157589743196812e-10	0.9904639	-0.019681713	0.0013476799	0.06951651	0	3e+09
9.201604069740085e-10	0.99052256	-0.020425512	0.001036792	0.06955768	0	3e+09
9.260317006720838e-10	0.9905992	-0.021103464	0.00060496456	0.06960998	0	3e+09
9.304362702086497e-10	0.99065465	-0.021368494	0.00027151455	0.06964767	0	3e+09
9.363093693589302e-10	0.9907255	-0.021389442	-0.00018065436	0.06969305	0	3e+09
9.407164670171843e-10	0.9907756	-0.021153089	-0.00052201765	0.06972729	0	3e+09
9.451244420597925e-10	0.9908227	-0.020700486	-0.0008620824	0.06975636	0	3e+09
9.51003642006356e-10	0.99087924	-0.019763906	-0.0013086236	0.069790564	0	3e+09
9.554133284771692e-10	0.9909164	-0.018816942	-0.0016346369	0.06981364	0	3e+09
9.612946557488533e-10	0.9909574	-0.017239446	-0.0020523237	0.06983841	0	3e+09
9.657054446179497e-10	0.9909802	-0.015831053	-0.0023492826	0.06985293	0	3e+09
9.701163951108365e-10	0.9909955	-0.014240514	-0.0026294647	0.06986318	0	3e+09
9.759964846440235e-10	0.99100214	-0.0118573755	-0.0029727456	0.06987257	0	3e+09
9.804074896419782e-10	0.99099547	-0.009889764	-0.0032047313	0.069875985	0	3e+09
9.86288489444686e-10	0.99096966	-0.0070549063	-0.0034761995	0.06987513	0	3e+09
9.906990381563515e-10	0.99093634	-0.0047913245	-0.0036491523	0.06986915	0	3e+09
9.951093206538912e-10	0.9908905	-0.0024293163	-0.0037941576	0.06986147	0	3e+09
1.0009905543026505e-09	0.99080926	0.0008420689	-0.0039419294	0.06984439	0	3e+09
1.0053998653243696e-09	0.9907332	0.0033610992	-0.0040172907	0.06982902	0	3e+09
1.0112771226908442e-09	0.99061185	0.006769881	-0.004069294	0.06980253	0	3e+09
1.0156848886490153e-09	0.99050677	0.009338818	-0.0040715174	0.06977945	0	3e+09
1.0200918686265832e-09	0.99039084	0.011895695	-0.0040421714	0.069753796	0	3e+09
1.0259656696222449e-09	0.9902214	0.015251192	-0.0039544366	0.069715306	0	3e+09
1.0303705165019999e-09	0.9900854	0.017702904	-0.003852906	0.06968449	0	3e+09
1.0362438862750306e-09	0.9898959	0.020849783	-0.0036715092	0.06963825	0	3e+09
1.040646871825784e-09	0.98975056	0.023093767	-0.0035025289	0.069602266	0	3e+09
1.0450489818846194e-09	0.9896052	0.025219634	-0.0033068843	0.06959455	0	3e+09
1.0509166987661252e-09	0.98941576	0.02784274	-0.0030074923	0.069668226	0	3e+09
1.0553168197981164e-09	0.9892802	0.029632917	-0.0027564962	0.06972387	0	3e+09
1.0611812517288648e-09	0.98911303	0.031758208	-0.0023907034	0.06979997	0	3e+09
1.0655794099353416e-09	0.9890007	0.033141814	-0.0020959135	0.06985805	0	3e+09
1.0714437734958156e-09	0.98887247	0.034687802	-0.0016802646	0.06993316	0	3e+09
1.0758401061987857e-09	0.9887946	0.035612606	-0.001355097	0.069990285	0	3e+09
1.0802358898068894e-09	0.98873395	0.036329933	-0.0010213202	0.070044816	0	3e+09
1.0860958307181698e-09	0.9886815	0.03695667	-0.0005676448	0.07011632	0	3e+09
1.0904901804480438e-09	0.9886637	0.03717667	-0.00022446518	0.070169896	0	3e+09
1.0963472800470061e-09	0.9886691	0.037136223	0.00023169794	0.070237875	0	3e+09
1.100740636119063e-09	0.98869383	0.036857765	0.00056943425	0.070288815	0	3e+09
1.1051336768828267e-09	0.98873544	0.03637046	0.0009004445	0.07033463	0	3e+09
1.1109918774521375e-09	0.98881483	0.0354047	0.0013270966	0.07039312	0	3e+09
1.1153842704424872e-09	0.9888895	0.034452625	0.0016328538	0.07043633	0	3e+09
1.1212406644175845e-09	0.9890058	0.03289547	0.002017473	0.070487976	0	3e+09
1.1256327701676016e-09	0.98910254	0.03152485	0.0022860225	0.07052266	0	3e+09
1.1300248157345203e-09	0.9892047	0.029993005	0.0025354766	0.0705548	0	3e+09
1.1358797232084715e-09	0.98934525	0.027721917	0.0028355485	0.070592836	0	3e+09
1.1402720317375212e-09	0.98945075	0.025863979	0.0030344923	0.07061649	0	3e+09
1.1461299320537666e-09	0.98958755	0.023208056	0.003262707	0.07064352	0	3e+09
1.1505226063438655e-09	0.9896843	0.021102823	0.0034048194	0.070660405	0	3e+09
1.1563800438063397e-09	0.9898023	0.01817434	0.003554341	0.070674755	0	3e+09
1.1607733357096424e-09	0.9898806	0.015908137	0.0036359343	0.070683196	0	3e+09
1.1651670168676632e-09	0.98994875	0.0136003895	0.0036910975	0.07068573	0	3e+09
1.17102435782454e-09	0.99002236	0.0104884	0.003723533	0.07068657	0	3e+09
1.1754188181434998e-09	0.9900641	0.008148563	0.0037172965	0.07068489	0	3e+09
1.1812798000767295e-09	0.990101	0.005052278	0.0036689816	0.07067813	0	3e+09
1.1856750621615329e-09	0.9901148	0.002769374	0.003603542	0.070669696	0	3e+09
1.190070771201618e-09	0.99011695	0.0005369723	0.0035139236	0.070660405	0	3e+09
1.1959326658286631e-09	0.9901031	-0.0023353854	0.0033584347	0.0706469	0	3e+09
1.200329314890383e-09	0.990081	-0.0043929005	0.003216235	0.07063592	0	3e+09
1.206190788036559e-09	0.9900377	-0.0069815377	0.0029948936	0.07061649	0	3e+09
1.2105884004323472e-09	0.9899958	-0.008791893	0.0028067464	0.070602134	0	3e+09
1.2164534052539679e-09	0.98993033	-0.011009113	0.0025291315	0.07057931	0	3e+09
1.2208518209383425e-09	0.989875	-0.012510876	0.0023029337	0.07056072	0	3e+09
1.225250538950209e-09	0.98981595	-0.0138647165	0.0020630967	0.07054127	0	3e+09
1.2311164860015465e-09	0.989733	-0.015426392	0.0017249846	0.070519276	0	3e+09
1.2355159374671901e-09	0.98966914	-0.016406314	0.0014599492	0.07050236	0	3e+09
1.241380814980239e-09	0.9895838	-0.017447624	0.0010947445	0.07053874	0	3e+09
1.2457808734700011e-09	0.98952067	-0.018024934	0.00081417034	0.07061649	0	3e+09
1.2501811598644978e-09	0.9894595	-0.018424459	0.00052995223	0.07069249	0	3e+09
1.2560491408419205e-09	0.9893824	-0.018678246	0.00014842268	0.07078862	0	3e+09
1.2604497511078703e-09	0.9893283	-0.018659191	-0.00013724699	0.07085684	0	3e+09
1.2663183489269781e-09	0.9892631	-0.018356802	-0.0005142252	0.07094519	0	3e+09
1.2707192987728212e-09	0.9892194	-0.01792552	-0.00079167646	0.0710057	0	3e+09
1.2751202864294657e-09	0.98918074	-0.017322976	-0.0010627412	0.07106533	0	3e+09
1.2809868230448765e-09	0.98913765	-0.016261803	-0.0014113005	0.07113916	0	3e+09
1.2853877618925886e-09	0.98911166	-0.015279836	-0.0016611568	0.07119113	0	3e+09
1.2912558534345898e-09	0.9890853	-0.013735848	-0.0019759592	0.07125228	0	3e+09
1.2956564942940523e-09	0.9890717	-0.012412358	-0.002196454	0.071297474	0	3e+09
1.300057005764977e-09	0.9890633	-0.010956834	-0.0024021273	0.071333446	0	3e+09
1.3059253628772068e-09	0.9890594	-0.008827173	-0.002651274	0.07137608	0	3e+09
1.310325692194119e-09	0.9890618	-0.0071024396	-0.0028178329	0.071402825	0	3e+09
1.3161911820085152e-09	0.98907065	-0.0046543977	-0.0030110155	0.07142955	0	3e+09
1.3205911773551723e-09	0.9890814	-0.0027215574	-0.0031332213	0.07144458	0	3e+09
1.3264575543291738e-09	0.9890997	-3.949586e-05	-0.0032645566	0.07145627	0	3e+09
1.3308570529715024e-09	0.98911595	0.0020340963	-0.0033386422	0.07145794	0	3e+09
1.3352564278061317e-09	0.98913354	0.0041463203	-0.0033913453	0.07145627	0	3e+09
1.3411234392232694e-09	0.9891587	0.0070002377	-0.0034279008	0.07145043	0	3e+09
1.345522423413326e-09	0.9891778	0.009150296	-0.0034298562	0.07144458	0	3e+09
1.3513862951230416e-09	0.9892033	0.012004172	-0.0033985816	0.071430385	0	3e+09
1.3557848813610646e-09	0.9892217	0.014118253	-0.0033499252	0.071418695	0	3e+09
1.3601832586850486e-09	0.9892395	0.016194506	-0.0032800073	0.07140533	0	3e+09
1.366047142389675e-09	0.9892614	0.018881166	-0.0031544867	0.071381934	0	3e+09
1.3704450458187058e-09	0.9892764	0.020818505	-0.0030368543	0.071365215	0	3e+09
1.3763101790810656e-09	0.9892945	0.0232751	-0.002849979	0.071442075	0	3e+09
1.3807078202434596e-09	0.989307	0.025006423	-0.002688445	0.071512185	0	3e+09
1.3851053463402462e-09	0.98931825	0.02663042	-0.0025096096	0.07158389	0	3e+09
1.390967500871355e-09	0.98933214	0.028610338	-0.0022461338	0.0716755	0	3e+09
1.3953646321174727e-09	0.98934186	0.029944077	-0.0020312013	0.07174122	0	3e+09
1.4012266378860718e-09	0.98935455	0.03150351	-0.0017240084	0.07182682	0	3e+09
1.4056235350798646e-09	0.98936415	0.032498978	-0.0014798695	0.071885765	0	3e+09
1.4100202451874772e-09	0.9893742	0.0333374	-0.0012255879	0.07193969	0	3e+09
1.4158837726011428e-09	0.9893883	0.034201156	-0.0008733224	0.072006	0	3e+09
1.4202802188208988e-09	0.9893998	0.034651924	-0.00060140813	0.07205073	0	3e+09
1.4261413723479785e-09	0.98941624	0.03498377	-0.00023168461	0.07210535	0	3e+09
1.4305377087502557e-09	0.9894294	0.035027876	4.8828653e-05	0.0721434	0	3e+09
1.436398526175723e-09	0.98944813	0.03481178	0.00042369912	0.072187215	0	3e+09
1.4407947494137771e-09	0.9894627	0.0344439	0.00070326164	0.07221943	0	3e+09
1.4451909932814178e-09	0.98947704	0.03390134	0.0009794274	0.072246686	0	3e+09
1.4510540697026703e-09	0.98949564	0.032910924	0.0013393295	0.07228053	0	3e+09
1.4554503098924683e-09	0.9895084	0.03197356	0.0016005612	0.07230117	0	3e+09
1.4613116090712204e-09	0.989523	0.030474558	0.0019339874	0.072325915	0	3e+09
1.4657080338617039e-09	0.98953104	0.029171938	0.0021706996	0.07234158	0	3e+09
1.4701044808504035e-09	0.9895362	0.027725263	0.0023940855	0.0723556	0	3e+09
1.4759654518473255e-09	0.9895376	0.025588352	0.0026684015	0.072367966	0	3e+09
1.480362049817841e-09	0.98953366	0.0238422	0.002854604	0.07237456	0	3e+09
1.4862257087894911e-09	0.98952097	0.02134372	0.0030741545	0.07237703	0	3e+09
1.4906224521940928e-09	0.9895054	0.019358845	0.0032155374	0.07237456	0	3e+09
1.4950193165857042e-09	0.9894844	0.01729284	0.003335723	0.072367966	0	3e+09
1.5008817208508122e-09	0.989448	0.01443589	0.003461268	0.072352305	0	3e+09
1.5052788163434244e-09	0.9894145	0.01223493	0.003528316	0.07233499	0	3e+09
1.5111405881693062e-09	0.98936206	0.00925171	0.003580296	0.07230529	0	3e+09
1.5155378631231659e-09	0.98931754	0.006996806	0.0035906269	0.07227806	0	3e+09
1.521402199368668e-09	0.98925227	0.0039964924	0.003565666	0.07223595	0	3e+09
1.525799492197526e-09	0.98919994	0.0017722122	0.0035178298	0.07220043	0	3e+09
1.530196916316369e-09	0.989146	-0.00041296493	0.003445196	0.072161585	0	3e+09
1.5360602604107683e-09	0.9890732	-0.0032390303	0.0033104	0.07210701	0	3e+09
1.5404577936818286e-09	0.9890193	-0.005273374	0.0031815728	0.07206314	0	3e+09
1.5463198222758422e-09	0.9889507	-0.007843935	0.0029743607	0.07200185	0	3e+09
1.5507174520377185e-09	0.9889034	-0.009648317	0.002793576	0.07195544	0	3e+09
1.5551150808355834e-09	0.9888609	-0.011331731	0.0025923776	0.072001025	0	3e+09
1.5609799524824123e-09	0.9888132	-0.013367387	0.0022946459	0.07207059	0	3e+09
1.5653778498229357e-09	0.9887856	-0.014722212	0.0020513213	0.072119415	0	3e+09
1.571242140573473e-09	0.98876137	-0.01628072	0.0017033347	0.07218639	0	3e+09
1.5756401378237283e-09	0.98875326	-0.017252097	0.0014270952	0.0722343	0	3e+09
1.5800381275812846e-09	0.9887544	-0.018045882	0.001139949	0.07228219	0	3e+09
1.5859005918516682e-09	0.9887705	-0.018817395	0.00074379006	0.07233994	0	3e+09
1.5902984896685833e-09	0.98879355	-0.01917518	0.0004393245	0.07238198	0	3e+09
1.5961631061190448e-09	0.9888384	-0.019351758	2.7802096e-05	0.07243718	0	3e+09
1.6005608299425935e-09	0.98888206	-0.019256983	-0.00028201943	0.07247259	0	3e+09
1.6064250753444478e-09	0.98895186	-0.018828113	-0.00069251296	0.07251702	0	3e+09
1.610822701350161e-09	0.9890119	-0.01828212	-0.0009954503	0.072544985	0	3e+09
1.6152203036237468e-09	0.9890772	-0.017547613	-0.0012917316	0.07257047	0	3e+09
1.6210822284856043e-09	0.9891705	-0.016284088	-0.0016725927	0.07259431	0	3e+09
1.625479732085057e-09	0.98924315	-0.015131244	-0.0019450426	0.07261074	0	3e+09
1.631343723101242e-09	0.98934126	-0.0133357635	-0.0022868766	0.07261979	0	3e+09
1.635741257375179e-09	0.98941356	-0.011807895	-0.0025246968	0.07262143	0	3e+09
1.6401388583245512e-09	0.98948336	-0.010136379	-0.0027447024	0.07261979	0	3e+09
1.646003148046236e-09	0.9895701	-0.0077045066	-0.003007612	0.07260417	0	3e+09
1.6504006407568169e-09	0.9896285	-0.0057455595	-0.003180054	0.07258856	0	3e+09
1.6562625742575194e-09	0.9896955	-0.0029803712	-0.0033746199	0.07255732	0	3e+09
1.6606600628988575e-09	0.9897365	-0.0008097262	-0.0034927293	0.07253101	0	3e+09
1.6650574714649554e-09	0.9897683	0.0014262337	-0.0035860038	0.072498925	0	3e+09
1.670920900556362e-09	0.98979574	0.004481627	-0.0036706175	0.072454475	0	3e+09
1.6753181564955205e-09	0.9898046	0.006807283	-0.0037036776	0.07241659	0	3e+09
1.6811822256140592e-09	0.9898005	0.00992285	-0.0037068008	0.072363846	0	3e+09
1.6855792735784366e-09	0.9897856	0.012247972	-0.0036784254	0.072325915	0	3e+09
1.6914405172824275e-09	0.98975086	0.01530118	-0.0036000896	0.07227145	0	3e+09
1.6958374118439052e-09	0.9897142	0.017535828	-0.0035115103	0.072233476	0	3e+09
1.7002342701456026e-09	0.98966974	0.019704992	-0.0033980908	0.072197124	0	3e+09
1.7060966957343778e-09	0.9895994	0.02246887	-0.0032097003	0.07214753	0	3e+09
1.710493403203957e-09	0.9895402	0.024426507	-0.0030418877	0.07211527	0	3e+09
1.7163570173187104e-09	0.98945475	0.026857391	-0.0027850503	0.072150834	0	3e+09
1.7207537861035484e-09	0.98938763	0.02852871	-0.0025695185	0.07220539	0	3e+09
1.725150524716195e-09	0.9893194	0.030057166	-0.0023360578	0.07226072	0	3e+09
1.7310115513575877e-09	0.9892292	0.031854354	-0.001999918	0.07233582	0	3e+09
1.7354081430953929e-09	0.9891636	0.033010192	-0.0017314382	0.072391875	0	3e+09
1.7412700746206032e-09	0.98908186	0.034279875	-0.0013554003	0.07246189	0	3e+09
1.7456666013710347e-09	0.9890259	0.035020303	-0.001062449	0.07250962	0	3e+09
1.7500631027074962e-09	0.98897594	0.03557359	-0.0007624788	0.07255404	0	3e+09
1.7559265972614545e-09	0.98891956	0.036014374	-0.0003552198	0.072609924	0	3e+09
1.7603232384913993e-09	0.9888861	0.036119577	-4.727908e-05	0.07264443	0	3e+09
1.766184297170717e-09	0.98885375	0.035958875	0.00036247956	0.072684646	0	3e+09
1.7705808260688929e-09	0.988839	0.03561422	0.00066646264	0.07270845	0	3e+09
1.7764423062077748e-09	0.98883206	0.0348613	0.0010631444	0.07273389	0	3e+09
1.7808387979000679e-09	0.98883575	0.034082133	0.0013515337	0.07274619	0	3e+09
1.7852353357285345e-09	0.9888469	0.033125546	0.0016298456	0.07275356	0	3e+09
1.7910989644221556e-09	0.98887193	0.031586066	0.001982023	0.07275684	0	3e+09
1.7954956750351752e-09	0.98889726	0.030244933	0.0022294943	0.07275603	0	3e+09
1.801357135152127e-09	0.98893857	0.028226472	0.0025340866	0.07274619	0	3e+09
1.8057539837564706e-09	0.9889735	0.026553515	0.0027415834	0.072737165	0	3e+09
1.8101508817996607e-09	0.989011	0.02475753	0.0029295506	0.07272158	0	3e+09
1.8160126763251376e-09	0.98906267	0.022193989	0.0031476626	0.07270189	0	3e+09
1.8204095411141882e-09	0.98910147	0.020161752	0.0032855428	0.07268137	0	3e+09
1.826273496763424e-09	0.98915166	0.017332656	0.003433482	0.07265264	0	3e+09
1.8306703108857262e-09	0.98918694	0.015141521	0.003516589	0.07262799	0	3e+09
1.8350670634818196e-09	0.9892193	0.01290741	0.0035753187	0.07260007	0	3e+09
1.8409288174334059e-09	0.989257	0.009888713	0.003615216	0.072562255	0	3e+09
1.8453256236701158e-09	0.9892805	0.0076144934	0.0036162117	0.07253019	0	3e+09
1.8511869928751625e-09	0.98930496	0.004599064	0.0035791653	0.0724874	0	3e+09
1.8555837242777132e-09	0.9893181	0.0023693556	0.0035229723	0.072452	0	3e+09
1.861447433906775e-09	0.98932874	-0.0005325595	0.0034110635	0.07240258	0	3e+09
1.865844082005372e-09	0.9893318	-0.002635604	0.0033002978	0.07236467	0	3e+09
1.8702406835556632e-09	0.98933136	-0.0046604695	0.003167438	0.07232427	0	3e+09
1.876102557715171e-09	0.9893255	-0.0072152973	0.0029576456	0.07227063	0	3e+09
1.8804991845554e-09	0.9893183	-0.0090063345	0.0027772742	0.072230995	0	3e+09
1.8863601896772903e-09	0.98930585	-0.01120454	0.0025085718	0.072289616	0	3e+09
1.890756777841129e-09	0.9892953	-0.012697396	0.002287638	0.07233994	0	3e+09
1.8951534480220113e-09	0.9892849	-0.014045522	0.0020517807	0.07238693	0	3e+09
1.9010170331783823e-09	0.9892718	-0.015603183	0.0017168185	0.07244459	0	3e+09
1.905413600538932e-09	0.9892634	-0.016581217	0.0014525643	0.072483286	0	3e+09
1.9112756676696093e-09	0.98925525	-0.017620223	0.0010861472	0.07252936	0	3e+09
1.9156723585902096e-09	0.9892521	-0.018194351	0.00080314704	0.07256061	0	3e+09
1.920069045993698e-09	0.9892516	-0.018588588	0.00051522354	0.0725902	0	3e+09